title                    = heating NVT equilibration, temperature coupling groups and annealing
;define                  = ;;;; -DPOSRES
;include                 = ;;;; -I../../top/itp      ; include itp folder to find posres.itp

; Run parameters
integrator              = md        ; leap-frog integrator
nsteps                  = 250000     ; 2 * 50000 = 100 ps ;;; NEW 500 ps ;;;
dt                      = 0.002     ; 2 fs
; Output control
nstenergy               = 50000   ; save energies every 1.0 ps ;;; NEW each 100 ps ;;;
nstlog                  = 50000   ; update log file every 1.0 ps
nstxout-compressed      = 50000   ; save coordinates every 1.0 ps ;;; TOO MUCH ;;;
; Bond parameters
continuation            = no        ; first dynamics run
constraint_algorithm    = lincs     ; holonomic constraints
constraints             = h-bonds   ; bonds to H are constrained
lincs_iter              = 1         ; accuracy of LINCS
lincs_order             = 4         ; also related to accuracy
; Neighbor searching and vdW
cutoff-scheme           = Verlet
ns_type                 = grid      ; search neighboring grid cells
nstlist                 = 20        ; largely irrelevant with Verlet
rlist                   = 1.2
vdwtype                 = cutoff
vdw-modifier            = force-switch
rvdw-switch             = 1.0
rvdw                    = 1.2       ; short-range van der Waals cutoff (in nm)
; Electrostatics
coulombtype             = PME       ; Particle Mesh Ewald for long-range electrostatics
rcoulomb                = 1.2       ; short-range electrostatic cutoff (in nm)
pme_order               = 4         ; cubic interpolation
fourierspacing          = 0.16      ; grid spacing for FFT
; Temperature coupling
tcoupl                  = V-rescale                     ; modified Berendsen thermostat
tc-grps                 = UNK SOL			; two coupling groups - more accurate
tau_t                   = 0.1   0.1                     ; time constant, in ps
ref_t                   = 300   300                     ; reference temperature, one for each group, in K
;;;;;;;;;;;;;;;;;;;;;;;;;;;;;
;Annealing
;;;;;;;;;;;;;;;;;;;;;;;;;;;;;
annealing                 = single single
annealing_npoints         = 6 6
annealing_time            = 0   100  150  200  300  400 0   100  150  200  300  400
annealing_temp            = 100 200 200 250 250 300 100 200 200 250 250 300
; Pressure coupling
pcoupl                  = no        ; no pressure coupling in NVT
; Periodic boundary conditions
pbc                     = xyz       ; 3-D PBC
; Dispersion correction is not used for proteins with the C36 additive FF
DispCorr                = no
; Velocity generation
gen_vel                 = yes       ; assign velocities from Maxwell distribution
gen_temp                = 300       ; temperature for Maxwell distribution
gen_seed                = -1        ; generate a random seed
