; UNK_GMX.top created by acpype (Rev: 0) on Wed Oct 27 12:30:37 2021

; force field???				<<-- added from protein top
; Include forcefield parameters			<<-- error second defaults directives
#include "amber99sb-ildn.ff/forcefield.itp"

;   [ defaults ]
;   ; nbfunc        comb-rule       gen-pairs       fudgeLJ fudgeQQ
;   1               2               yes             0.5     0.8333

; Include UNK_GMX.itp topology
#include "../itp/UNK_GMX.itp"

; include solvent topology			<<-- added from protein
; Include water topology
#include "amber99sb-ildn.ff/tip3p.itp"

#ifdef POSRES_WATER
; Position restraint for each water oxygen
[ position_restraints ]
;  i funct       fcx        fcy        fcz
   1    1       1000       1000       1000
#endif

; Include topology for ions
#include "amber99sb-ildn.ff/ions.itp"

[ system ]
UNK in water

[ molecules ]
; Compound        nmols
 UNK              1     
SOL              6607
