UNK_GMX.gro created by acpype (Rev: 0) on Wed Oct 27 12:30:37 2021
19911
    1UNK     C1    1   6.427   4.983   2.316
    1UNK     C2    2   6.557   5.031   2.316
    1UNK     C3    3   6.664   4.942   2.316
    1UNK     C4    4   6.640   4.804   2.317
    1UNK     C5    5   6.510   4.757   2.317
    1UNK     C6    6   6.404   4.846   2.317
    1UNK     C7    7   6.266   4.790   2.317
    1UNK     O1    8   6.241   4.673   2.317
    1UNK     O2    9   6.171   4.883   2.317
    1UNK     C8   10   6.036   4.838   2.317
    1UNK     C9   11   5.952   4.964   2.317
    1UNK     O3   12   5.817   4.920   2.317
    1UNK    C10   13   5.723   5.013   2.317
    1UNK    C11   14   5.585   4.956   2.317
    1UNK     O4   15   5.747   5.129   2.317
    1UNK    C12   16   5.478   5.045   2.318
    1UNK    C13   17   5.348   4.998   2.318
    1UNK    C14   18   5.325   4.860   2.317
    1UNK    C15   19   5.431   4.771   2.317
    1UNK    C16   20   5.561   4.819   2.317
    1UNK    C17   21   6.802   4.998   2.316
    1UNK     O5   22   6.826   5.115   2.316
    1UNK     O6   23   6.896   4.905   2.316
    1UNK    C18   24   7.031   4.949   2.316
    1UNK    C19   25   5.187   4.804   2.317
    1UNK     O7   26   5.163   4.687   2.317
    1UNK     O8   27   5.092   4.897   2.318
    1UNK    C20   28   4.957   4.852   2.318
    1UNK    C21   29   4.352   4.785   2.318
    1UNK    C22   30   4.482   4.832   2.318
    1UNK    C23   31   4.505   4.969   2.318
    1UNK    C24   32   4.399   5.058   2.318
    1UNK    C25   33   4.269   5.011   2.318
    1UNK    C26   34   4.245   4.874   2.318
    1UNK    C27   35   4.107   4.817   2.318
    1UNK     O9   36   4.083   4.701   2.318
    1UNK    O10   37   4.013   4.910   2.318
    1UNK    C28   38   3.878   4.866   2.318
    1UNK    C29   39   3.794   4.992   2.317
    1UNK    O11   40   3.659   4.947   2.317
    1UNK    C30   41   3.565   5.040   2.317
    1UNK    C31   42   3.426   4.984   2.317
    1UNK    O12   43   3.589   5.157   2.317
    1UNK    C32   44   3.320   5.073   2.316
    1UNK    C33   45   3.190   5.026   2.316
    1UNK    C34   46   3.166   4.889   2.316
    1UNK    C35   47   3.273   4.800   2.317
    1UNK    C36   48   3.403   4.847   2.317
    1UNK    C37   49   4.643   5.026   2.318
    1UNK    O13   50   4.667   5.143   2.318
    1UNK    O14   51   4.738   4.933   2.318
    1UNK    C38   52   4.873   4.977   2.318
    1UNK    C39   53   3.028   4.832   2.316
    1UNK    O15   54   3.004   4.716   2.316
    1UNK    O16   55   2.934   4.926   2.316
    1UNK    C40   56   2.799   4.881   2.315
    1UNK     H1   57   6.345   5.052   2.316
    1UNK     H2   58   6.577   5.136   2.316
    1UNK     H3   59   6.722   4.736   2.317
    1UNK     H4   60   6.490   4.652   2.317
    1UNK     H5   61   6.017   4.779   2.229
    1UNK     H6   62   6.018   4.778   2.404
    1UNK     H7   63   5.971   5.024   2.405
    1UNK     H8   64   5.971   5.024   2.229
    1UNK     H9   65   5.498   5.150   2.318
    1UNK    H10   66   5.266   5.066   2.318
    1UNK    H11   67   5.411   4.666   2.317
    1UNK    H12   68   5.643   4.750   2.317
    1UNK    H13   69   7.091   4.860   2.316
    1UNK    H14   70   7.051   5.008   2.404
    1UNK    H15   71   7.051   5.008   2.228
    1UNK    H16   72   4.332   4.679   2.318
    1UNK    H17   73   4.564   4.764   2.318
    1UNK    H18   74   4.419   5.164   2.318
    1UNK    H19   75   4.187   5.080   2.318
    1UNK    H20   76   3.859   4.806   2.406
    1UNK    H21   77   3.859   4.806   2.230
    1UNK    H22   78   3.813   5.052   2.405
    1UNK    H23   79   3.813   5.052   2.230
    1UNK    H24   80   3.340   5.178   2.316
    1UNK    H25   81   3.108   5.094   2.316
    1UNK    H26   82   3.253   4.694   2.317
    1UNK    H27   83   3.485   4.778   2.317
    1UNK    H28   84   2.739   4.971   2.315
    1UNK    H29   85   2.779   4.822   2.404
    1UNK    H30   86   2.780   4.822   2.227
    1UNK    H31   87   4.939   4.792   2.405
    1UNK    H32   88   4.938   4.792   2.230
    1UNK    H33   89   4.892   5.038   2.230
    1UNK    H34   90   4.892   5.038   2.405
    2SOL     OW   91   1.336   1.583   0.888
    2SOL    HW1   92   1.399   1.553   0.953
    2SOL    HW2   93   1.287   1.652   0.933
    3SOL     OW   94   2.010   1.314   1.665
    3SOL    HW1   95   2.066   1.287   1.592
    3SOL    HW2   96   2.058   1.288   1.743
    4SOL     OW   97   2.228   0.646   1.662
    4SOL    HW1   98   2.158   0.589   1.695
    4SOL    HW2   99   2.281   0.588   1.607
    5SOL     OW  100   0.645   2.336   0.377
    5SOL    HW1  101   0.653   2.427   0.348
    5SOL    HW2  102   0.709   2.289   0.324
    6SOL     OW  103   1.951   1.302   1.280
    6SOL    HW1  104   1.890   1.232   1.301
    6SOL    HW2  105   2.021   1.294   1.345
    7SOL     OW  106   1.871   1.514   1.527
    7SOL    HW1  107   1.920   1.441   1.563
    7SOL    HW2  108   1.814   1.543   1.599
    8SOL     OW  109   1.433   0.206   2.188
    8SOL    HW1  110   1.356   0.254   2.219
    8SOL    HW2  111   1.506   0.243   2.238
    9SOL     OW  112   0.349   2.234   1.980
    9SOL    HW1  113   0.362   2.173   2.053
    9SOL    HW2  114   0.292   2.187   1.920
   10SOL     OW  115   0.321   2.468   1.836
   10SOL    HW1  116   0.227   2.479   1.823
   10SOL    HW2  117   0.329   2.384   1.883
   11SOL     OW  118   1.799   1.729   1.853
   11SOL    HW1  119   1.745   1.701   1.780
   11SOL    HW2  120   1.756   1.808   1.886
   12SOL     OW  121   1.397   1.675   1.188
   12SOL    HW1  122   1.444   1.687   1.271
   12SOL    HW2  123   1.411   1.583   1.166
   13SOL     OW  124   1.760   2.124   0.610
   13SOL    HW1  125   1.803   2.209   0.612
   13SOL    HW2  126   1.831   2.061   0.623
   14SOL     OW  127   0.387   0.934   0.777
   14SOL    HW1  128   0.455   0.985   0.734
   14SOL    HW2  129   0.378   0.976   0.863
   15SOL     OW  130   1.713   0.723   0.485
   15SOL    HW1  131   1.709   0.811   0.522
   15SOL    HW2  132   1.727   0.737   0.392
   16SOL     OW  133   1.615   0.275   1.119
   16SOL    HW1  134   1.632   0.365   1.149
   16SOL    HW2  135   1.701   0.244   1.090
   17SOL     OW  136   1.889   0.021   1.059
   17SOL    HW1  137   1.816  -0.026   1.099
   17SOL    HW2  138   1.954  -0.046   1.041
   18SOL     OW  139   1.616   0.022   1.323
   18SOL    HW1  140   1.659   0.107   1.333
   18SOL    HW2  141   1.543   0.025   1.386
   19SOL     OW  142   0.611   1.975   0.152
   19SOL    HW1  143   0.519   1.994   0.171
   19SOL    HW2  144   0.610   1.884   0.123
   20SOL     OW  145   2.330   1.260   0.892
   20SOL    HW1  146   2.396   1.197   0.863
   20SOL    HW2  147   2.381   1.334   0.924
   21SOL     OW  148   1.804   1.252   2.275
   21SOL    HW1  149   1.834   1.162   2.288
   21SOL    HW2  150   1.876   1.306   2.307
   22SOL     OW  151   2.227   0.648   0.400
   22SOL    HW1  152   2.240   0.580   0.466
   22SOL    HW2  153   2.304   0.641   0.344
   23SOL     OW  154   0.703   1.503   0.672
   23SOL    HW1  155   0.673   1.540   0.755
   23SOL    HW2  156   0.798   1.498   0.681
   24SOL     OW  157   0.905   2.380   2.486
   24SOL    HW1  158   0.859   2.343   2.411
   24SOL    HW2  159   0.897   2.314   2.554
   25SOL     OW  160   2.227   1.768   2.162
   25SOL    HW1  161   2.274   1.845   2.132
   25SOL    HW2  162   2.285   1.695   2.140
   26SOL     OW  163   1.982   1.963   0.665
   26SOL    HW1  164   2.078   1.965   0.662
   26SOL    HW2  165   1.958   1.883   0.619
   27SOL     OW  166   0.479   1.755   1.409
   27SOL    HW1  167   0.401   1.729   1.360
   27SOL    HW2  168   0.445   1.801   1.486
   28SOL     OW  169   0.564   0.727   0.778
   28SOL    HW1  170   0.617   0.744   0.856
   28SOL    HW2  171   0.505   0.802   0.773
   29SOL     OW  172   0.930   2.433   1.435
   29SOL    HW1  173   0.947   2.371   1.364
   29SOL    HW2  174   0.858   2.488   1.403
   30SOL     OW  175   0.114   1.833   0.457
   30SOL    HW1  176   0.050   1.769   0.426
   30SOL    HW2  177   0.198   1.790   0.444
   31SOL     OW  178   1.140   2.142   0.741
   31SOL    HW1  179   1.110   2.215   0.794
   31SOL    HW2  180   1.195   2.090   0.801
   32SOL     OW  181   0.134   1.400   0.733
   32SOL    HW1  182   0.073   1.440   0.796
   32SOL    HW2  183   0.077   1.353   0.672
   33SOL     OW  184   1.193   0.410   2.141
   33SOL    HW1  185   1.198   0.370   2.055
   33SOL    HW2  186   1.202   0.504   2.125
   34SOL     OW  187   2.418   0.093   2.428
   34SOL    HW1  188   2.360   0.077   2.503
   34SOL    HW2  189   2.506   0.075   2.462
   35SOL     OW  190   0.981   1.838   0.021
   35SOL    HW1  191   1.002   1.766   0.081
   35SOL    HW2  192   0.965   1.795  -0.063
   36SOL     OW  193   2.025   1.067   2.120
   36SOL    HW1  194   1.976   1.056   2.201
   36SOL    HW2  195   1.994   0.998   2.063
   37SOL     OW  196   2.284   1.420   2.446
   37SOL    HW1  197   2.370   1.378   2.441
   37SOL    HW2  198   2.300   1.511   2.423
   38SOL     OW  199   1.961   0.982   1.791
   38SOL    HW1  200   1.924   0.927   1.722
   38SOL    HW2  201   1.935   0.939   1.873
   39SOL     OW  202   2.269   1.906   0.570
   39SOL    HW1  203   2.349   1.940   0.610
   39SOL    HW2  204   2.290   1.816   0.545
   40SOL     OW  205   1.846   0.308   1.804
   40SOL    HW1  206   1.757   0.274   1.801
   40SOL    HW2  207   1.883   0.271   1.884
   41SOL     OW  208   1.262   2.367   1.878
   41SOL    HW1  209   1.200   2.304   1.841
   41SOL    HW2  210   1.327   2.314   1.924
   42SOL     OW  211   1.773   0.930   1.147
   42SOL    HW1  212   1.746   1.010   1.191
   42SOL    HW2  213   1.868   0.927   1.160
   43SOL     OW  214   1.572   0.761   1.059
   43SOL    HW1  215   1.625   0.824   1.109
   43SOL    HW2  216   1.508   0.816   1.012
   44SOL     OW  217   0.878   1.008   1.880
   44SOL    HW1  218   0.819   0.979   1.949
   44SOL    HW2  219   0.865   1.103   1.874
   45SOL     OW  220   0.348   0.135   2.075
   45SOL    HW1  221   0.344   0.078   2.152
   45SOL    HW2  222   0.366   0.076   2.002
   46SOL     OW  223   1.291   1.519   2.249
   46SOL    HW1  224   1.327   1.430   2.240
   46SOL    HW2  225   1.343   1.572   2.189
   47SOL     OW  226   1.221   2.270   0.337
   47SOL    HW1  227   1.184   2.356   0.355
   47SOL    HW2  228   1.194   2.250   0.247
   48SOL     OW  229   0.825   0.446   0.499
   48SOL    HW1  230   0.863   0.454   0.412
   48SOL    HW2  231   0.781   0.529   0.514
   49SOL     OW  232   0.436   1.450   0.582
   49SOL    HW1  233   0.514   1.464   0.635
   49SOL    HW2  234   0.407   1.361   0.604
   50SOL     OW  235   2.455   0.186   0.710
   50SOL    HW1  236   2.471   0.100   0.671
   50SOL    HW2  237   2.537   0.234   0.696
   51SOL     OW  238   1.508   2.028   0.802
   51SOL    HW1  239   1.536   1.939   0.825
   51SOL    HW2  240   1.585   2.068   0.762
   52SOL     OW  241   0.266   1.158   0.563
   52SOL    HW1  242   0.180   1.186   0.531
   52SOL    HW2  243   0.277   1.069   0.529
   53SOL     OW  244   1.937   1.511   0.098
   53SOL    HW1  245   1.931   1.455   0.175
   53SOL    HW2  246   1.974   1.455   0.030
   54SOL     OW  247   0.857   1.911   0.346
   54SOL    HW1  248   0.923   1.871   0.290
   54SOL    HW2  249   0.907   1.964   0.409
   55SOL     OW  250   0.365   2.325   0.286
   55SOL    HW1  251   0.447   2.276   0.291
   55SOL    HW2  252   0.348   2.332   0.192
   56SOL     OW  253   2.151   1.612   0.380
   56SOL    HW1  254   2.116   1.524   0.362
   56SOL    HW2  255   2.235   1.614   0.335
   57SOL     OW  256   1.553   0.989   1.908
   57SOL    HW1  257   1.637   1.030   1.924
   57SOL    HW2  258   1.555   0.909   1.962
   58SOL     OW  259   0.063   0.489   1.792
   58SOL    HW1  260   0.079   0.462   1.702
   58SOL    HW2  261  -0.022   0.451   1.814
   59SOL     OW  262   1.448   0.167   1.926
   59SOL    HW1  263   1.451   0.174   2.022
   59SOL    HW2  264   1.373   0.110   1.909
   60SOL     OW  265   1.277   1.443   0.527
   60SOL    HW1  266   1.235   1.440   0.613
   60SOL    HW2  267   1.339   1.516   0.533
   61SOL     OW  268   1.910   0.443   0.494
   61SOL    HW1  269   1.842   0.436   0.561
   61SOL    HW2  270   1.992   0.439   0.543
   62SOL     OW  271   1.841   1.700   2.133
   62SOL    HW1  272   1.898   1.632   2.166
   62SOL    HW2  273   1.845   1.692   2.038
   63SOL     OW  274   0.165   1.775   1.991
   63SOL    HW1  275   0.088   1.806   2.038
   63SOL    HW2  276   0.202   1.854   1.951
   64SOL     OW  277   0.858   1.423   2.194
   64SOL    HW1  278   0.835   1.474   2.117
   64SOL    HW2  279   0.813   1.340   2.182
   65SOL     OW  280   2.262   0.994   1.069
   65SOL    HW1  281   2.250   0.961   0.980
   65SOL    HW2  282   2.343   1.046   1.065
   66SOL     OW  283   0.637   1.596   0.211
   66SOL    HW1  284   0.610   1.632   0.296
   66SOL    HW2  285   0.732   1.600   0.212
   67SOL     OW  286   2.393   0.903   1.801
   67SOL    HW1  287   2.414   0.865   1.716
   67SOL    HW2  288   2.379   0.828   1.859
   68SOL     OW  289   2.029   0.865   0.742
   68SOL    HW1  290   1.951   0.812   0.761
   68SOL    HW2  291   2.024   0.882   0.648
   69SOL     OW  292   1.075   0.106   1.158
   69SOL    HW1  293   1.159   0.118   1.114
   69SOL    HW2  294   1.088   0.033   1.217
   70SOL     OW  295   1.651   0.164   0.600
   70SOL    HW1  296   1.660   0.100   0.671
   70SOL    HW2  297   1.718   0.138   0.536
   71SOL     OW  298   0.032   1.998   0.632
   71SOL    HW1  299   0.062   1.951   0.555
   71SOL    HW2  300   0.107   1.997   0.692
   72SOL     OW  301   0.935   2.428   0.579
   72SOL    HW1  302   0.961   2.444   0.488
   72SOL    HW2  303   1.015   2.441   0.629
   73SOL     OW  304   1.207   1.453   0.022
   73SOL    HW1  305   1.179   1.369  -0.014
   73SOL    HW2  306   1.244   1.500  -0.052
   74SOL     OW  307   1.788   1.149   1.964
   74SOL    HW1  308   1.728   1.212   2.006
   74SOL    HW2  309   1.874   1.191   1.970
   75SOL     OW  310   1.649   1.320   0.029
   75SOL    HW1  311   1.583   1.254   0.009
   75SOL    HW2  312   1.676   1.354  -0.056
   76SOL     OW  313   0.553   0.493   1.647
   76SOL    HW1  314   0.567   0.582   1.681
   76SOL    HW2  315   0.597   0.436   1.710
   77SOL     OW  316   1.282   0.299   0.888
   77SOL    HW1  317   1.300   0.275   0.797
   77SOL    HW2  318   1.207   0.358   0.883
   78SOL     OW  319   0.414   1.828   1.841
   78SOL    HW1  320   0.501   1.838   1.803
   78SOL    HW2  321   0.426   1.764   1.911
   79SOL     OW  322   0.246   0.249   1.749
   79SOL    HW1  323   0.271   0.242   1.842
   79SOL    HW2  324   0.254   0.342   1.729
   80SOL     OW  325   0.556   1.505   1.553
   80SOL    HW1  326   0.525   1.576   1.498
   80SOL    HW2  327   0.623   1.544   1.608
   81SOL     OW  328   0.649   0.336   1.854
   81SOL    HW1  329   0.606   0.335   1.940
   81SOL    HW2  330   0.646   0.245   1.825
   82SOL     OW  331   1.730   0.517   1.988
   82SOL    HW1  332   1.726   0.489   2.079
   82SOL    HW2  333   1.787   0.453   1.945
   83SOL     OW  334   0.372   1.125   1.919
   83SOL    HW1  335   0.314   1.090   1.851
   83SOL    HW2  336   0.441   1.059   1.927
   84SOL     OW  337   1.060   1.789   1.646
   84SOL    HW1  338   1.081   1.839   1.567
   84SOL    HW2  339   1.058   1.698   1.617
   85SOL     OW  340   1.663   2.418   2.070
   85SOL    HW1  341   1.586   2.401   2.124
   85SOL    HW2  342   1.708   2.334   2.066
   86SOL     OW  343   0.488   0.277   1.487
   86SOL    HW1  344   0.509   0.219   1.559
   86SOL    HW2  345   0.510   0.365   1.519
   87SOL     OW  346   0.849   1.939   1.846
   87SOL    HW1  347   0.842   1.861   1.901
   87SOL    HW2  348   0.881   1.907   1.762
   88SOL     OW  349   1.418   2.466   1.508
   88SOL    HW1  350   1.409   2.546   1.560
   88SOL    HW2  351   1.397   2.395   1.569
   89SOL     OW  352   0.743   0.603   1.434
   89SOL    HW1  353   0.724   0.682   1.384
   89SOL    HW2  354   0.669   0.595   1.496
   90SOL     OW  355   2.058   2.116   2.066
   90SOL    HW1  356   2.043   2.055   2.138
   90SOL    HW2  357   2.093   2.062   1.995
   91SOL     OW  358   0.840   2.243   0.764
   91SOL    HW1  359   0.877   2.269   0.679
   91SOL    HW2  360   0.751   2.277   0.763
   92SOL     OW  361   2.366   0.730   1.996
   92SOL    HW1  362   2.453   0.693   2.010
   92SOL    HW2  363   2.315   0.659   1.957
   93SOL     OW  364   1.873   2.188   1.484
   93SOL    HW1  365   1.895   2.112   1.537
   93SOL    HW2  366   1.899   2.263   1.538
   94SOL     OW  367   0.629   0.257   0.520
   94SOL    HW1  368   0.706   0.312   0.529
   94SOL    HW2  369   0.611   0.226   0.608
   95SOL     OW  370   0.068   0.419   2.190
   95SOL    HW1  371   0.061   0.334   2.148
   95SOL    HW2  372   0.094   0.479   2.119
   96SOL     OW  373   1.062   2.484   0.336
   96SOL    HW1  374   1.112   2.565   0.337
   96SOL    HW2  375   1.022   2.482   0.249
   97SOL     OW  376   2.344   0.502   0.165
   97SOL    HW1  377   2.377   0.457   0.088
   97SOL    HW2  378   2.377   0.451   0.239
   98SOL     OW  379   1.597   0.363   2.453
   98SOL    HW1  380   1.663   0.308   2.496
   98SOL    HW2  381   1.592   0.441   2.507
   99SOL     OW  382   2.219   2.179   0.481
   99SOL    HW1  383   2.303   2.184   0.436
   99SOL    HW2  384   2.214   2.089   0.513
  100SOL     OW  385   1.398   1.258   1.901
  100SOL    HW1  386   1.435   1.307   1.974
  100SOL    HW2  387   1.415   1.166   1.923
  101SOL     OW  388   2.340   0.697   1.365
  101SOL    HW1  389   2.375   0.610   1.348
  101SOL    HW2  390   2.257   0.700   1.318
  102SOL     OW  391   1.332   0.076   0.187
  102SOL    HW1  392   1.364   0.082   0.276
  102SOL    HW2  393   1.389   0.011   0.145
  103SOL     OW  394   0.609   1.018   1.760
  103SOL    HW1  395   0.671   1.065   1.704
  103SOL    HW2  396   0.524   1.031   1.717
  104SOL     OW  397   2.050   1.932   2.295
  104SOL    HW1  398   2.034   1.940   2.389
  104SOL    HW2  399   2.098   1.850   2.285
  105SOL     OW  400   1.621   1.249   0.363
  105SOL    HW1  401   1.538   1.292   0.343
  105SOL    HW2  402   1.684   1.289   0.303
  106SOL     OW  403   0.426   0.555   1.943
  106SOL    HW1  404   0.428   0.536   1.849
  106SOL    HW2  405   0.456   0.474   1.985
  107SOL     OW  406   2.101   0.841   1.537
  107SOL    HW1  407   2.009   0.839   1.562
  107SOL    HW2  408   2.143   0.776   1.594
  108SOL     OW  409   1.111   1.109   1.460
  108SOL    HW1  410   1.190   1.161   1.475
  108SOL    HW2  411   1.133   1.022   1.493
  109SOL     OW  412   2.333   1.300   1.238
  109SOL    HW1  413   2.424   1.318   1.217
  109SOL    HW2  414   2.286   1.380   1.216
  110SOL     OW  415   2.442   1.653   1.452
  110SOL    HW1  416   2.373   1.645   1.386
  110SOL    HW2  417   2.394   1.676   1.532
  111SOL     OW  418   2.085   1.733   1.850
  111SOL    HW1  419   2.112   1.671   1.917
  111SOL    HW2  420   1.989   1.726   1.847
  112SOL     OW  421   0.902   1.505   0.032
  112SOL    HW1  422   0.942   1.426   0.069
  112SOL    HW2  423   0.959   1.527  -0.042
  113SOL     OW  424   1.927   0.271   1.156
  113SOL    HW1  425   1.910   0.290   1.249
  113SOL    HW2  426   1.931   0.175   1.152
  114SOL     OW  427   1.932   1.862   0.996
  114SOL    HW1  428   1.904   1.889   0.909
  114SOL    HW2  429   1.900   1.773   1.006
  115SOL     OW  430   0.614   0.360   1.137
  115SOL    HW1  431   0.576   0.272   1.135
  115SOL    HW2  432   0.541   0.417   1.160
  116SOL     OW  433   0.178   2.202   1.197
  116SOL    HW1  434   0.112   2.225   1.132
  116SOL    HW2  435   0.235   2.139   1.154
  117SOL     OW  436   0.511   0.473   0.728
  117SOL    HW1  437   0.587   0.415   0.726
  117SOL    HW2  438   0.539   0.547   0.781
  118SOL     OW  439   1.434   1.166   2.379
  118SOL    HW1  440   1.379   1.109   2.433
  118SOL    HW2  441   1.512   1.113   2.360
  119SOL     OW  442   2.417   2.181   1.714
  119SOL    HW1  443   2.323   2.192   1.706
  119SOL    HW2  444   2.452   2.200   1.627
  120SOL     OW  445   1.038   1.167   0.021
  120SOL    HW1  446   1.049   1.157  -0.074
  120SOL    HW2  447   0.946   1.146   0.037
  121SOL     OW  448   2.061   0.867   1.205
  121SOL    HW1  449   2.130   0.920   1.165
  121SOL    HW2  450   2.086   0.862   1.298
  122SOL     OW  451   2.373   2.316   0.215
  122SOL    HW1  452   2.320   2.380   0.263
  122SOL    HW2  453   2.439   2.287   0.277
  123SOL     OW  454   1.723   0.022   0.003
  123SOL    HW1  455   1.631  -0.001  -0.002
  123SOL    HW2  456   1.755  -0.024   0.081
  124SOL     OW  457   1.756   0.248   0.152
  124SOL    HW1  458   1.820   0.270   0.220
  124SOL    HW2  459   1.779   0.160   0.124
  125SOL     OW  460   1.945   1.740   0.266
  125SOL    HW1  461   2.013   1.701   0.322
  125SOL    HW2  462   1.916   1.668   0.210
  126SOL     OW  463   0.601   2.292   1.343
  126SOL    HW1  464   0.627   2.279   1.251
  126SOL    HW2  465   0.513   2.330   1.337
  127SOL     OW  466   1.174   0.613   0.856
  127SOL    HW1  467   1.152   0.646   0.769
  127SOL    HW2  468   1.119   0.535   0.867
  128SOL     OW  469   0.339   1.590   0.020
  128SOL    HW1  470   0.248   1.611  -0.002
  128SOL    HW2  471   0.377   1.559  -0.062
  129SOL     OW  472   1.319   0.907   1.401
  129SOL    HW1  473   1.366   0.836   1.445
  129SOL    HW2  474   1.368   0.986   1.425
  130SOL     OW  475   2.077   0.468   0.103
  130SOL    HW1  476   2.089   0.452   0.009
  130SOL    HW2  477   2.160   0.506   0.131
  131SOL     OW  478   0.589   0.968   2.390
  131SOL    HW1  479   0.500   1.002   2.377
  131SOL    HW2  480   0.578   0.874   2.402
  132SOL     OW  481   0.088   1.401   1.457
  132SOL    HW1  482   0.022   1.380   1.523
  132SOL    HW2  483   0.063   1.488   1.425
  133SOL     OW  484   1.977   2.167   2.478
  133SOL    HW1  485   1.907   2.161   2.543
  133SOL    HW2  486   1.958   2.095   2.417
  134SOL     OW  487   0.052   2.225   0.404
  134SOL    HW1  488   0.147   2.234   0.407
  134SOL    HW2  489   0.030   2.178   0.485
  135SOL     OW  490   0.309   0.719   1.686
  135SOL    HW1  491   0.216   0.702   1.673
  135SOL    HW2  492   0.349   0.700   1.601
  136SOL     OW  493   2.010   0.482   1.394
  136SOL    HW1  494   2.019   0.476   1.299
  136SOL    HW2  495   1.960   0.404   1.418
  137SOL     OW  496   0.016   0.590   0.431
  137SOL    HW1  497   0.063   0.518   0.473
  137SOL    HW2  498   0.078   0.625   0.367
  138SOL     OW  499   0.053   0.885   0.987
  138SOL    HW1  500  -0.025   0.836   0.960
  138SOL    HW2  501   0.047   0.967   0.938
  139SOL     OW  502   2.055   1.000   0.098
  139SOL    HW1  503   2.139   1.003   0.143
  139SOL    HW2  504   2.006   0.930   0.141
  140SOL     OW  505   0.505   1.020   0.358
  140SOL    HW1  506   0.462   1.103   0.336
  140SOL    HW2  507   0.450   0.953   0.317
  141SOL     OW  508   1.050   0.879   1.693
  141SOL    HW1  509   1.130   0.932   1.699
  141SOL    HW2  510   0.988   0.923   1.750
  142SOL     OW  511   0.341   0.986   1.663
  142SOL    HW1  512   0.268   1.033   1.624
  142SOL    HW2  513   0.347   0.905   1.613
  143SOL     OW  514   1.475   2.136   1.601
  143SOL    HW1  515   1.390   2.120   1.561
  143SOL    HW2  516   1.533   2.153   1.527
  144SOL     OW  517   0.152   0.098   1.400
  144SOL    HW1  518   0.165   0.093   1.305
  144SOL    HW2  519   0.228   0.146   1.432
  145SOL     OW  520   0.051   2.397   2.116
  145SOL    HW1  521   0.005   2.333   2.171
  145SOL    HW2  522   0.025   2.376   2.027
  146SOL     OW  523   2.417   2.194   2.272
  146SOL    HW1  524   2.327   2.222   2.288
  146SOL    HW2  525   2.456   2.185   2.359
  147SOL     OW  526   0.269   0.868   2.171
  147SOL    HW1  527   0.294   0.960   2.186
  147SOL    HW2  528   0.293   0.851   2.080
  148SOL     OW  529   1.677   1.390   0.610
  148SOL    HW1  530   1.694   1.347   0.526
  148SOL    HW2  531   1.691   1.483   0.593
  149SOL     OW  532   0.976   1.314   1.594
  149SOL    HW1  533   1.033   1.350   1.661
  149SOL    HW2  534   1.017   1.232   1.568
  150SOL     OW  535   0.847   0.239   1.015
  150SOL    HW1  536   0.904   0.200   1.081
  150SOL    HW2  537   0.767   0.262   1.063
  151SOL     OW  538   2.041   1.508   2.237
  151SOL    HW1  539   2.075   1.432   2.285
  151SOL    HW2  540   2.108   1.526   2.171
  152SOL     OW  541   0.631   1.669   2.431
  152SOL    HW1  542   0.586   1.685   2.514
  152SOL    HW2  543   0.701   1.609   2.453
  153SOL     OW  544   2.327   0.989   1.476
  153SOL    HW1  545   2.248   0.957   1.520
  153SOL    HW2  546   2.338   0.931   1.401
  154SOL     OW  547   1.479   2.357   0.022
  154SOL    HW1  548   1.457   2.365  -0.071
  154SOL    HW2  549   1.398   2.329   0.064
  155SOL     OW  550   2.085   1.271   1.946
  155SOL    HW1  551   2.133   1.206   1.895
  155SOL    HW2  552   2.065   1.227   2.029
  156SOL     OW  553   0.022   0.850   2.336
  156SOL    HW1  554   0.093   0.795   2.303
  156SOL    HW2  555  -0.036   0.861   2.261
  157SOL     OW  556   0.695   0.681   1.021
  157SOL    HW1  557   0.752   0.605   1.008
  157SOL    HW2  558   0.721   0.717   1.106
  158SOL     OW  559   0.075   1.217   0.072
  158SOL    HW1  560   0.052   1.204  -0.020
  158SOL    HW2  561   0.163   1.254   0.070
  159SOL     OW  562   2.192   0.519   1.961
  159SOL    HW1  563   2.152   0.513   1.874
  159SOL    HW2  564   2.177   0.433   2.000
  160SOL     OW  565   1.032   0.523   2.471
  160SOL    HW1  566   1.125   0.543   2.479
  160SOL    HW2  567   1.029   0.441   2.423
  161SOL     OW  568   2.168   1.976   1.856
  161SOL    HW1  569   2.134   1.887   1.856
  161SOL    HW2  570   2.214   1.985   1.772
  162SOL     OW  571   0.017   0.182   2.057
  162SOL    HW1  572   0.031   0.094   2.093
  162SOL    HW2  573   0.005   0.168   1.963
  163SOL     OW  574   2.225   1.417   0.651
  163SOL    HW1  575   2.252   1.384   0.737
  163SOL    HW2  576   2.135   1.448   0.664
  164SOL     OW  577   0.774   1.676   1.629
  164SOL    HW1  578   0.838   1.671   1.700
  164SOL    HW2  579   0.731   1.761   1.641
  165SOL     OW  580   1.611   2.193   1.347
  165SOL    HW1  581   1.627   2.281   1.314
  165SOL    HW2  582   1.696   2.164   1.382
  166SOL     OW  583   0.666   0.699   0.521
  166SOL    HW1  584   0.716   0.780   0.525
  166SOL    HW2  585   0.645   0.679   0.612
  167SOL     OW  586   2.206   2.452   0.419
  167SOL    HW1  587   2.149   2.509   0.470
  167SOL    HW2  588   2.165   2.366   0.425
  168SOL     OW  589   0.127   0.003   0.281
  168SOL    HW1  590   0.124   0.010   0.185
  168SOL    HW2  591   0.215  -0.032   0.299
  169SOL     OW  592   0.267   0.729   0.976
  169SOL    HW1  593   0.194   0.791   0.982
  169SOL    HW2  594   0.321   0.762   0.904
  170SOL     OW  595   1.116   0.335   0.389
  170SOL    HW1  596   1.192   0.339   0.332
  170SOL    HW2  597   1.041   0.332   0.329
  171SOL     OW  598   2.397   1.734   0.876
  171SOL    HW1  599   2.396   1.720   0.781
  171SOL    HW2  600   2.355   1.820   0.887
  172SOL     OW  601   0.366   2.045   1.105
  172SOL    HW1  602   0.415   1.972   1.066
  172SOL    HW2  603   0.372   2.029   1.199
  173SOL     OW  604   2.476   0.758   0.648
  173SOL    HW1  605   2.503   0.842   0.610
  173SOL    HW2  606   2.498   0.693   0.581
  174SOL     OW  607   0.338   2.110   2.228
  174SOL    HW1  608   0.275   2.049   2.267
  174SOL    HW2  609   0.416   2.102   2.283
  175SOL     OW  610   0.102   1.118   1.486
  175SOL    HW1  611   0.108   1.210   1.460
  175SOL    HW2  612   0.009   1.099   1.486
  176SOL     OW  613   0.826   2.147   2.310
  176SOL    HW1  614   0.889   2.083   2.344
  176SOL    HW2  615   0.841   2.147   2.215
  177SOL     OW  616   0.671   1.942   1.255
  177SOL    HW1  617   0.594   1.893   1.284
  177SOL    HW2  618   0.673   2.019   1.312
  178SOL     OW  619   0.120   0.471   1.062
  178SOL    HW1  620   0.091   0.513   0.982
  178SOL    HW2  621   0.041   0.458   1.113
  179SOL     OW  622   0.667   0.976   2.068
  179SOL    HW1  623   0.693   0.899   2.117
  179SOL    HW2  624   0.599   0.945   2.008
  180SOL     OW  625   0.079   2.216   0.934
  180SOL    HW1  626   0.007   2.169   0.892
  180SOL    HW2  627   0.158   2.187   0.888
  181SOL     OW  628   1.481   1.102   1.261
  181SOL    HW1  629   1.458   1.022   1.215
  181SOL    HW2  630   1.399   1.152   1.264
  182SOL     OW  631   0.448   1.290   0.340
  182SOL    HW1  632   0.539   1.295   0.368
  182SOL    HW2  633   0.408   1.370   0.376
  183SOL     OW  634   2.392   1.646   0.614
  183SOL    HW1  635   2.473   1.603   0.587
  183SOL    HW2  636   2.329   1.574   0.625
  184SOL     OW  637   1.915   1.002   2.360
  184SOL    HW1  638   1.982   0.996   2.428
  184SOL    HW2  639   1.892   0.911   2.340
  185SOL     OW  640   1.071   2.170   1.782
  185SOL    HW1  641   1.028   2.256   1.783
  185SOL    HW2  642   1.002   2.109   1.806
  186SOL     OW  643   1.412   0.581   1.848
  186SOL    HW1  644   1.363   0.506   1.815
  186SOL    HW2  645   1.364   0.610   1.925
  187SOL     OW  646   1.804   0.733   0.776
  187SOL    HW1  647   1.747   0.748   0.852
  187SOL    HW2  648   1.770   0.653   0.737
  188SOL     OW  649   0.369   1.135   2.348
  188SOL    HW1  650   0.296   1.170   2.297
  188SOL    HW2  651   0.363   1.180   2.432
  189SOL     OW  652   0.042   0.111   1.649
  189SOL    HW1  653   0.114   0.169   1.671
  189SOL    HW2  654   0.058   0.086   1.558
  190SOL     OW  655   0.930   0.630   1.153
  190SOL    HW1  656   0.931   0.688   1.229
  190SOL    HW2  657   1.016   0.587   1.155
  191SOL     OW  658   0.775   0.664   2.474
  191SOL    HW1  659   0.715   0.631   2.542
  191SOL    HW2  660   0.849   0.604   2.477
  192SOL     OW  661   0.559   0.412   2.445
  192SOL    HW1  662   0.497   0.470   2.489
  192SOL    HW2  663   0.515   0.388   2.364
  193SOL     OW  664   0.627   2.464   1.561
  193SOL    HW1  665   0.658   2.522   1.492
  193SOL    HW2  666   0.627   2.377   1.521
  194SOL     OW  667   1.306   1.239   0.894
  194SOL    HW1  668   1.398   1.254   0.871
  194SOL    HW2  669   1.257   1.276   0.820
  195SOL     OW  670   1.288   1.765   0.444
  195SOL    HW1  671   1.306   1.852   0.410
  195SOL    HW2  672   1.206   1.739   0.402
  196SOL     OW  673   1.525   0.976   1.635
  196SOL    HW1  674   1.546   0.973   1.728
  196SOL    HW2  675   1.534   0.885   1.605
  197SOL     OW  676   0.241   1.356   1.761
  197SOL    HW1  677   0.207   1.269   1.781
  197SOL    HW2  678   0.184   1.388   1.691
  198SOL     OW  679   1.047   1.552   1.474
  198SOL    HW1  680   1.009   1.464   1.465
  198SOL    HW2  681   0.986   1.609   1.427
  199SOL     OW  682   1.464   1.695   0.631
  199SOL    HW1  683   1.413   1.718   0.553
  199SOL    HW2  684   1.398   1.665   0.693
  200SOL     OW  685   0.797   0.183   2.234
  200SOL    HW1  686   0.809   0.123   2.161
  200SOL    HW2  687   0.884   0.218   2.251
  201SOL     OW  688   1.685   1.971   1.908
  201SOL    HW1  689   1.701   2.065   1.921
  201SOL    HW2  690   1.638   1.944   1.987
  202SOL     OW  691   1.564   1.269   0.843
  202SOL    HW1  692   1.637   1.262   0.905
  202SOL    HW2  693   1.601   1.317   0.768
  203SOL     OW  694   0.639   1.766   0.443
  203SOL    HW1  695   0.704   1.824   0.403
  203SOL    HW2  696   0.659   1.768   0.537
  204SOL     OW  697   1.892   0.853   2.007
  204SOL    HW1  698   1.809   0.814   2.035
  204SOL    HW2  699   1.959   0.795   2.043
  205SOL     OW  700   0.603   1.066   0.630
  205SOL    HW1  701   0.576   1.051   0.540
  205SOL    HW2  702   0.698   1.055   0.629
  206SOL     OW  703   0.781   2.204   2.029
  206SOL    HW1  704   0.769   2.120   1.985
  206SOL    HW2  705   0.697   2.222   2.070
  207SOL     OW  706   1.137   2.271   0.094
  207SOL    HW1  707   1.145   2.192   0.041
  207SOL    HW2  708   1.078   2.328   0.044
  208SOL     OW  709   0.417   0.703   0.434
  208SOL    HW1  710   0.499   0.700   0.485
  208SOL    HW2  711   0.445   0.724   0.345
  209SOL     OW  712   0.990   2.118   0.471
  209SOL    HW1  713   1.020   2.106   0.561
  209SOL    HW2  714   1.044   2.190   0.438
  210SOL     OW  715   2.263   0.119   0.930
  210SOL    HW1  716   2.228   0.205   0.953
  210SOL    HW2  717   2.334   0.137   0.868
  211SOL     OW  718   0.682   0.100   0.295
  211SOL    HW1  719   0.725   0.135   0.218
  211SOL    HW2  720   0.671   0.175   0.353
  212SOL     OW  721   0.680   1.547   1.953
  212SOL    HW1  722   0.633   1.464   1.944
  212SOL    HW2  723   0.636   1.592   2.025
  213SOL     OW  724   2.403   0.775   0.101
  213SOL    HW1  725   2.389   0.683   0.082
  213SOL    HW2  726   2.437   0.812   0.019
  214SOL     OW  727   1.846   0.090   0.436
  214SOL    HW1  728   1.901   0.011   0.438
  214SOL    HW2  729   1.902   0.157   0.398
  215SOL     OW  730   1.712   2.426   0.781
  215SOL    HW1  731   1.773   2.491   0.815
  215SOL    HW2  732   1.689   2.373   0.858
  216SOL     OW  733   1.742   0.473   2.243
  216SOL    HW1  734   1.803   0.400   2.253
  216SOL    HW2  735   1.662   0.443   2.286
  217SOL     OW  736   0.016   0.553   0.823
  217SOL    HW1  737   0.046   0.625   0.768
  217SOL    HW2  738   0.031   0.474   0.770
  218SOL     OW  739   1.756   1.688   0.537
  218SOL    HW1  740   1.745   1.738   0.456
  218SOL    HW2  741   1.676   1.706   0.587
  219SOL     OW  742   2.250   0.139   0.168
  219SOL    HW1  743   2.319   0.164   0.229
  219SOL    HW2  744   2.183   0.099   0.223
  220SOL     OW  745   1.407   0.689   1.555
  220SOL    HW1  746   1.381   0.621   1.616
  220SOL    HW2  747   1.405   0.647   1.469
  221SOL     OW  748   1.390   1.727   1.713
  221SOL    HW1  749   1.404   1.814   1.752
  221SOL    HW2  750   1.337   1.745   1.635
  222SOL     OW  751   1.886   0.199   0.812
  222SOL    HW1  752   1.842   0.284   0.822
  222SOL    HW2  753   1.907   0.172   0.901
  223SOL     OW  754   2.079   1.124   0.844
  223SOL    HW1  755   2.060   1.032   0.828
  223SOL    HW2  756   2.173   1.132   0.833
  224SOL     OW  757   0.129   0.489   1.551
  224SOL    HW1  758   0.190   0.544   1.503
  224SOL    HW2  759   0.097   0.425   1.487
  225SOL     OW  760   0.625   1.609   0.902
  225SOL    HW1  761   0.689   1.664   0.947
  225SOL    HW2  762   0.606   1.538   0.964
  226SOL     OW  763   1.403   0.568   1.303
  226SOL    HW1  764   1.485   0.567   1.253
  226SOL    HW2  765   1.334   0.557   1.237
  227SOL     OW  766   1.107   1.648   0.197
  227SOL    HW1  767   1.135   1.572   0.147
  227SOL    HW2  768   1.047   1.613   0.263
  228SOL     OW  769   0.205   1.241   2.116
  228SOL    HW1  770   0.259   1.308   2.158
  228SOL    HW2  771   0.245   1.230   2.029
  229SOL     OW  772   1.711   2.273   0.169
  229SOL    HW1  773   1.757   2.196   0.204
  229SOL    HW2  774   1.629   2.239   0.135
  230SOL     OW  775   0.731   0.147   1.332
  230SOL    HW1  776   0.717   0.235   1.367
  230SOL    HW2  777   0.660   0.134   1.269
  231SOL     OW  778   1.413   0.391   0.363
  231SOL    HW1  779   1.437   0.471   0.408
  231SOL    HW2  780   1.478   0.382   0.293
  232SOL     OW  781   0.050   2.392   1.830
  232SOL    HW1  782   0.023   2.457   1.765
  232SOL    HW2  783   0.010   2.310   1.801
  233SOL     OW  784   1.374   1.174   1.556
  233SOL    HW1  785   1.445   1.113   1.576
  233SOL    HW2  786   1.417   1.248   1.514
  234SOL     OW  787   2.036   1.728   1.506
  234SOL    HW1  788   1.984   1.648   1.500
  234SOL    HW2  789   2.015   1.777   1.427
  235SOL     OW  790   1.036   1.661   2.267
  235SOL    HW1  791   1.006   1.583   2.219
  235SOL    HW2  792   1.129   1.667   2.248
  236SOL     OW  793   1.655   0.560   1.199
  236SOL    HW1  794   1.735   0.585   1.245
  236SOL    HW2  795   1.627   0.638   1.153
  237SOL     OW  796   1.613   0.862   0.143
  237SOL    HW1  797   1.586   0.903   0.061
  237SOL    HW2  798   1.587   0.924   0.211
  238SOL     OW  799   0.681   1.897   0.744
  238SOL    HW1  800   0.776   1.891   0.740
  238SOL    HW2  801   0.658   1.963   0.679
  239SOL     OW  802   1.392   2.389   0.870
  239SOL    HW1  803   1.300   2.414   0.873
  239SOL    HW2  804   1.421   2.415   0.783
  240SOL     OW  805   0.554   2.397   2.042
  240SOL    HW1  806   0.572   2.444   1.960
  240SOL    HW2  807   0.477   2.344   2.024
  241SOL     OW  808   2.316   2.327   0.704
  241SOL    HW1  809   2.280   2.354   0.620
  241SOL    HW2  810   2.244   2.281   0.747
  242SOL     OW  811   2.261   1.643   1.665
  242SOL    HW1  812   2.201   1.675   1.597
  242SOL    HW2  813   2.222   1.673   1.747
  243SOL     OW  814   0.018   1.832   1.125
  243SOL    HW1  815  -0.017   1.862   1.041
  243SOL    HW2  816   0.087   1.771   1.102
  244SOL     OW  817   1.474   1.962   1.272
  244SOL    HW1  818   1.536   2.031   1.295
  244SOL    HW2  819   1.389   2.005   1.273
  245SOL     OW  820   0.730   0.230   0.048
  245SOL    HW1  821   0.652   0.284   0.033
  245SOL    HW2  822   0.761   0.208  -0.040
  246SOL     OW  823   0.349   2.375   1.324
  246SOL    HW1  824   0.332   2.460   1.284
  246SOL    HW2  825   0.298   2.313   1.272
  247SOL     OW  826   1.093   0.342   1.289
  247SOL    HW1  827   1.076   0.258   1.246
  247SOL    HW2  828   1.137   0.395   1.223
  248SOL     OW  829   2.189   1.268   1.464
  248SOL    HW1  830   2.238   1.267   1.381
  248SOL    HW2  831   2.236   1.207   1.520
  249SOL     OW  832   0.413   0.825   1.947
  249SOL    HW1  833   0.427   0.731   1.950
  249SOL    HW2  834   0.380   0.841   1.858
  250SOL     OW  835   0.260   1.304   0.939
  250SOL    HW1  836   0.351   1.275   0.934
  250SOL    HW2  837   0.242   1.342   0.852
  251SOL     OW  838   1.770   2.095   1.124
  251SOL    HW1  839   1.693   2.082   1.069
  251SOL    HW2  840   1.801   2.006   1.143
  252SOL     OW  841   1.032   0.309   0.645
  252SOL    HW1  842   1.095   0.325   0.575
  252SOL    HW2  843   0.948   0.337   0.610
  253SOL     OW  844   0.289   0.395   2.360
  253SOL    HW1  845   0.212   0.422   2.312
  253SOL    HW2  846   0.300   0.302   2.339
  254SOL     OW  847   1.365   2.159   2.047
  254SOL    HW1  848   1.291   2.159   2.108
  254SOL    HW2  849   1.441   2.139   2.101
  255SOL     OW  850   1.140   1.908   1.881
  255SOL    HW1  851   1.228   1.933   1.854
  255SOL    HW2  852   1.106   1.857   1.807
  256SOL     OW  853   1.444   0.608   0.816
  256SOL    HW1  854   1.349   0.616   0.829
  256SOL    HW2  855   1.482   0.640   0.898
  257SOL     OW  856   1.645   1.604   1.674
  257SOL    HW1  857   1.569   1.657   1.651
  257SOL    HW2  858   1.610   1.516   1.686
  258SOL     OW  859   2.212   2.438   1.742
  258SOL    HW1  860   2.208   2.419   1.835
  258SOL    HW2  861   2.246   2.527   1.736
  259SOL     OW  862   1.741   0.171   2.243
  259SOL    HW1  863   1.738   0.127   2.328
  259SOL    HW2  864   1.683   0.118   2.187
  260SOL     OW  865   0.329   2.018   1.369
  260SOL    HW1  866   0.308   1.964   1.446
  260SOL    HW2  867   0.290   2.103   1.389
  261SOL     OW  868   0.056   1.668   0.011
  261SOL    HW1  869   0.095   1.751  -0.016
  261SOL    HW2  870  -0.038   1.681   0.001
  262SOL     OW  871   0.668   0.225   0.783
  262SOL    HW1  872   0.640   0.133   0.787
  262SOL    HW2  873   0.731   0.234   0.855
  263SOL     OW  874   1.580   1.988   2.170
  263SOL    HW1  875   1.504   1.938   2.199
  263SOL    HW2  876   1.638   1.989   2.246
  264SOL     OW  877   2.075   0.049   0.649
  264SOL    HW1  878   1.999   0.105   0.667
  264SOL    HW2  879   2.132   0.062   0.725
  265SOL     OW  880   0.646   1.345   0.048
  265SOL    HW1  881   0.621   1.414   0.110
  265SOL    HW2  882   0.633   1.385  -0.038
  266SOL     OW  883   2.314   0.383   1.594
  266SOL    HW1  884   2.375   0.310   1.594
  266SOL    HW2  885   2.230   0.343   1.572
  267SOL     OW  886   0.098   1.129   1.809
  267SOL    HW1  887   0.025   1.091   1.857
  267SOL    HW2  888   0.112   1.068   1.736
  268SOL     OW  889   1.589   0.586   0.126
  268SOL    HW1  890   1.593   0.682   0.125
  268SOL    HW2  891   1.670   0.559   0.169
  269SOL     OW  892   0.487   2.402   0.851
  269SOL    HW1  893   0.542   2.402   0.772
  269SOL    HW2  894   0.407   2.447   0.824
  270SOL     OW  895   2.374   1.986   1.319
  270SOL    HW1  896   2.440   1.954   1.257
  270SOL    HW2  897   2.294   1.990   1.267
  271SOL     OW  898   1.537   0.216   1.688
  271SOL    HW1  899   1.543   0.304   1.653
  271SOL    HW2  900   1.480   0.224   1.765
  272SOL     OW  901   2.154   0.623   1.144
  272SOL    HW1  902   2.112   0.707   1.131
  272SOL    HW2  903   2.213   0.613   1.069
  273SOL     OW  904   0.852   1.117   0.557
  273SOL    HW1  905   0.895   1.039   0.523
  273SOL    HW2  906   0.918   1.158   0.614
  274SOL     OW  907   2.065   1.281   2.398
  274SOL    HW1  908   2.074   1.202   2.451
  274SOL    HW2  909   2.144   1.331   2.416
  275SOL     OW  910   2.475   1.658   0.290
  275SOL    HW1  911   2.443   1.568   0.299
  275SOL    HW2  912   2.516   1.661   0.203
  276SOL     OW  913   0.486   1.870   0.943
  276SOL    HW1  914   0.537   1.896   0.866
  276SOL    HW2  915   0.540   1.802   0.984
  277SOL     OW  916   1.395   2.421   2.247
  277SOL    HW1  917   1.406   2.512   2.218
  277SOL    HW2  918   1.300   2.410   2.254
  278SOL     OW  919   0.233   1.961   0.817
  278SOL    HW1  920   0.295   1.969   0.890
  278SOL    HW2  921   0.219   1.867   0.807
  279SOL     OW  922   0.692   1.261   1.574
  279SOL    HW1  923   0.649   1.347   1.581
  279SOL    HW2  924   0.785   1.282   1.564
  280SOL     OW  925   1.146   1.450   0.758
  280SOL    HW1  926   1.065   1.461   0.809
  280SOL    HW2  927   1.215   1.481   0.817
  281SOL     OW  928   1.242   0.498   1.101
  281SOL    HW1  929   1.245   0.412   1.058
  281SOL    HW2  930   1.241   0.561   1.028
  282SOL     OW  931   0.629   2.093   0.558
  282SOL    HW1  932   0.703   2.142   0.522
  282SOL    HW2  933   0.558   2.156   0.563
  283SOL     OW  934   1.847   0.827   0.241
  283SOL    HW1  935   1.864   0.733   0.240
  283SOL    HW2  936   1.771   0.838   0.183
  284SOL     OW  937   0.551   0.039   2.334
  284SOL    HW1  938   0.541  -0.041   2.282
  284SOL    HW2  939   0.629   0.081   2.298
  285SOL     OW  940   0.519   1.348   1.868
  285SOL    HW1  941   0.442   1.390   1.830
  285SOL    HW2  942   0.488   1.260   1.892
  286SOL     OW  943   0.034   0.768   1.564
  286SOL    HW1  944  -0.049   0.730   1.535
  286SOL    HW2  945   0.064   0.820   1.489
  287SOL     OW  946   1.711   1.280   1.076
  287SOL    HW1  947   1.728   1.208   1.137
  287SOL    HW2  948   1.798   1.306   1.046
  288SOL     OW  949   2.388   1.416   0.220
  288SOL    HW1  950   2.439   1.336   0.213
  288SOL    HW2  951   2.343   1.424   0.136
  289SOL     OW  952   1.154   0.062   0.675
  289SOL    HW1  953   1.110   0.147   0.673
  289SOL    HW2  954   1.242   0.080   0.640
  290SOL     OW  955   0.190   0.014   0.014
  290SOL    HW1  956   0.267   0.065   0.039
  290SOL    HW2  957   0.207  -0.011  -0.077
  291SOL     OW  958   1.308   1.856   1.484
  291SOL    HW1  959   1.253   1.932   1.464
  291SOL    HW2  960   1.394   1.878   1.449
  292SOL     OW  961   1.878   1.195   0.252
  292SOL    HW1  962   1.914   1.153   0.173
  292SOL    HW2  963   1.808   1.136   0.280
  293SOL     OW  964   1.592   0.755   2.048
  293SOL    HW1  965   1.626   0.666   2.034
  293SOL    HW2  966   1.554   0.752   2.136
  294SOL     OW  967   0.893   1.664   1.873
  294SOL    HW1  968   0.805   1.628   1.888
  294SOL    HW2  969   0.949   1.615   1.933
  295SOL     OW  970   0.731   0.748   2.196
  295SOL    HW1  971   0.746   0.723   2.288
  295SOL    HW2  972   0.659   0.691   2.168
  296SOL     OW  973   0.984   1.262   1.088
  296SOL    HW1  974   1.036   1.249   1.009
  296SOL    HW2  975   0.908   1.311   1.058
  297SOL     OW  976   1.588   0.444   1.552
  297SOL    HW1  977   1.556   0.480   1.469
  297SOL    HW2  978   1.605   0.521   1.606
  298SOL     OW  979   0.096   0.809   1.270
  298SOL    HW1  980   0.102   0.842   1.181
  298SOL    HW2  981   0.005   0.781   1.279
  299SOL     OW  982   1.828   0.545   0.249
  299SOL    HW1  983   1.907   0.522   0.200
  299SOL    HW2  984   1.850   0.526   0.340
  300SOL     OW  985   1.372   2.003   1.831
  300SOL    HW1  986   1.360   2.052   1.912
  300SOL    HW2  987   1.431   2.057   1.778
  301SOL     OW  988   0.385   2.065   0.441
  301SOL    HW1  989   0.476   2.042   0.459
  301SOL    HW2  990   0.335   1.988   0.469
  302SOL     OW  991   0.839   1.691   1.358
  302SOL    HW1  992   0.764   1.726   1.310
  302SOL    HW2  993   0.805   1.674   1.446
  303SOL     OW  994   1.209   2.119   1.537
  303SOL    HW1  995   1.160   2.116   1.455
  303SOL    HW2  996   1.142   2.116   1.606
  304SOL     OW  997   2.347   2.003   0.938
  304SOL    HW1  998   2.300   2.066   0.883
  304SOL    HW2  999   2.302   2.007   1.023
  305SOL     OW 1000   0.557   2.132   2.394
  305SOL    HW1 1001   0.645   2.170   2.390
  305SOL    HW2 1002   0.562   2.067   2.465
  306SOL     OW 1003   1.686   0.965   0.624
  306SOL    HW1 1004   1.744   1.040   0.638
  306SOL    HW2 1005   1.720   0.897   0.681
  307SOL     OW 1006   1.286   1.292   1.281
  307SOL    HW1 1007   1.283   1.367   1.341
  307SOL    HW2 1008   1.199   1.291   1.240
  308SOL     OW 1009   0.449   1.033   1.019
  308SOL    HW1 1010   0.515   0.998   1.079
  308SOL    HW2 1011   0.395   1.091   1.074
  309SOL     OW 1012   0.361   1.414   2.230
  309SOL    HW1 1013   0.453   1.409   2.207
  309SOL    HW2 1014   0.327   1.487   2.177
  310SOL     OW 1015   1.855   1.166   0.646
  310SOL    HW1 1016   1.916   1.169   0.720
  310SOL    HW2 1017   1.810   1.250   0.649
  311SOL     OW 1018   1.652   1.552   1.299
  311SOL    HW1 1019   1.590   1.493   1.257
  311SOL    HW2 1020   1.708   1.494   1.352
  312SOL     OW 1021   0.805   2.165   0.222
  312SOL    HW1 1022   0.744   2.095   0.197
  312SOL    HW2 1023   0.859   2.127   0.291
  313SOL     OW 1024   0.216   1.703   1.348
  313SOL    HW1 1025   0.221   1.710   1.253
  313SOL    HW2 1026   0.123   1.687   1.365
  314SOL     OW 1027   0.642   1.045   1.426
  314SOL    HW1 1028   0.718   1.100   1.410
  314SOL    HW2 1029   0.593   1.091   1.494
  315SOL     OW 1030   1.732   1.122   1.326
  315SOL    HW1 1031   1.639   1.114   1.303
  315SOL    HW2 1032   1.732   1.136   1.421
  316SOL     OW 1033   1.223   0.119   1.764
  316SOL    HW1 1034   1.137   0.128   1.722
  316SOL    HW2 1035   1.220   0.033   1.805
  317SOL     OW 1036   0.735   2.107   1.476
  317SOL    HW1 1037   0.826   2.081   1.458
  317SOL    HW2 1038   0.727   2.194   1.438
  318SOL     OW 1039   2.097   1.889   0.075
  318SOL    HW1 1040   2.181   1.923   0.108
  318SOL    HW2 1041   2.057   1.846   0.150
  319SOL     OW 1042   2.274   1.044   0.480
  319SOL    HW1 1043   2.186   1.007   0.483
  319SOL    HW2 1044   2.298   1.043   0.387
  320SOL     OW 1045   2.448   0.234   0.333
  320SOL    HW1 1046   2.509   0.280   0.391
  320SOL    HW2 1047   2.487   0.147   0.321
  321SOL     OW 1048   1.347   1.335   0.275
  321SOL    HW1 1049   1.291   1.388   0.218
  321SOL    HW2 1050   1.319   1.358   0.363
  322SOL     OW 1051   0.367   1.309   1.409
  322SOL    HW1 1052   0.418   1.349   1.480
  322SOL    HW2 1053   0.282   1.353   1.414
  323SOL     OW 1054   0.934   1.912   0.769
  323SOL    HW1 1055   1.013   1.966   0.776
  323SOL    HW2 1056   0.913   1.887   0.859
  324SOL     OW 1057   1.239   0.226   2.454
  324SOL    HW1 1058   1.237   0.168   2.530
  324SOL    HW2 1059   1.323   0.272   2.461
  325SOL     OW 1060   1.900   1.607   0.901
  325SOL    HW1 1061   1.924   1.533   0.956
  325SOL    HW2 1062   1.938   1.586   0.815
  326SOL     OW 1063   0.922   1.549   0.363
  326SOL    HW1 1064   0.850   1.494   0.393
  326SOL    HW2 1065   0.958   1.587   0.444
  327SOL     OW 1066   1.665   0.404   0.750
  327SOL    HW1 1067   1.632   0.324   0.708
  327SOL    HW2 1068   1.589   0.462   0.753
  328SOL     OW 1069   2.300   1.705   2.422
  328SOL    HW1 1070   2.222   1.741   2.466
  328SOL    HW2 1071   2.288   1.729   2.330
  329SOL     OW 1072   0.745   0.921   0.298
  329SOL    HW1 1073   0.657   0.952   0.316
  329SOL    HW2 1074   0.777   0.978   0.228
  330SOL     OW 1075   1.336   2.033   0.428
  330SOL    HW1 1076   1.324   2.121   0.393
  330SOL    HW2 1077   1.316   2.041   0.521
  331SOL     OW 1078   1.110   2.379   0.888
  331SOL    HW1 1079   1.019   2.408   0.888
  331SOL    HW2 1080   1.150   2.425   0.814
  332SOL     OW 1081   0.069   2.430   0.614
  332SOL    HW1 1082  -0.006   2.388   0.655
  332SOL    HW2 1083   0.066   2.403   0.523
  333SOL     OW 1084   0.247   0.038   0.808
  333SOL    HW1 1085   0.185   0.052   0.880
  333SOL    HW2 1086   0.195  -0.005   0.740
  334SOL     OW 1087   1.234   0.400   1.788
  334SOL    HW1 1088   1.200   0.418   1.700
  334SOL    HW2 1089   1.259   0.308   1.786
  335SOL     OW 1090   0.500   1.235   0.834
  335SOL    HW1 1091   0.512   1.177   0.760
  335SOL    HW2 1092   0.562   1.203   0.900
  336SOL     OW 1093   1.420   1.661   0.166
  336SOL    HW1 1094   1.349   1.599   0.151
  336SOL    HW2 1095   1.402   1.698   0.252
  337SOL     OW 1096   2.311   1.944   0.221
  337SOL    HW1 1097   2.326   2.028   0.264
  337SOL    HW2 1098   2.393   1.896   0.234
  338SOL     OW 1099   0.136   1.932   2.376
  338SOL    HW1 1100   0.110   1.998   2.440
  338SOL    HW2 1101   0.086   1.954   2.298
  339SOL     OW 1102   0.588   0.075   1.802
  339SOL    HW1 1103   0.626   0.043   1.720
  339SOL    HW2 1104   0.494   0.072   1.787
  340SOL     OW 1105   0.984   2.285   1.216
  340SOL    HW1 1106   0.945   2.237   1.143
  340SOL    HW2 1107   1.072   2.305   1.186
  341SOL     OW 1108   2.468   1.491   0.961
  341SOL    HW1 1109   2.483   1.495   1.055
  341SOL    HW2 1110   2.434   1.577   0.938
  342SOL     OW 1111   0.129   0.615   2.023
  342SOL    HW1 1112   0.122   0.587   1.931
  342SOL    HW2 1113   0.217   0.653   2.030
  343SOL     OW 1114   1.807   1.151   1.608
  343SOL    HW1 1115   1.898   1.180   1.623
  343SOL    HW2 1116   1.804   1.064   1.647
  344SOL     OW 1117   1.547   0.980   0.381
  344SOL    HW1 1118   1.567   1.073   0.371
  344SOL    HW2 1119   1.600   0.952   0.455
  345SOL     OW 1120   0.275   0.095   1.137
  345SOL    HW1 1121   0.296   0.167   1.077
  345SOL    HW2 1122   0.198   0.053   1.097
  346SOL     OW 1123   0.254   0.547   0.604
  346SOL    HW1 1124   0.318   0.529   0.673
  346SOL    HW2 1125   0.291   0.622   0.556
  347SOL     OW 1126   0.402   0.847   0.196
  347SOL    HW1 1127   0.454   0.804   0.128
  347SOL    HW2 1128   0.329   0.886   0.148
  348SOL     OW 1129   1.415   1.919   2.479
  348SOL    HW1 1130   1.432   1.851   2.544
  348SOL    HW2 1131   1.330   1.954   2.503
  349SOL     OW 1132   1.273   1.009   1.740
  349SOL    HW1 1133   1.359   0.980   1.771
  349SOL    HW2 1134   1.293   1.071   1.670
  350SOL     OW 1135   2.006   0.261   0.307
  350SOL    HW1 1136   2.043   0.279   0.221
  350SOL    HW2 1137   1.986   0.347   0.344
  351SOL     OW 1138   1.009   1.661   0.596
  351SOL    HW1 1139   0.964   1.742   0.621
  351SOL    HW2 1140   1.079   1.652   0.660
  352SOL     OW 1141   0.991   1.908   1.121
  352SOL    HW1 1142   0.941   1.985   1.094
  352SOL    HW2 1143   1.080   1.926   1.090
  353SOL     OW 1144   0.965   1.936   1.405
  353SOL    HW1 1145   0.918   1.855   1.426
  353SOL    HW2 1146   0.986   1.928   1.312
  354SOL     OW 1147   0.412   1.462   1.173
  354SOL    HW1 1148   0.359   1.392   1.212
  354SOL    HW2 1149   0.493   1.462   1.224
  355SOL     OW 1150   1.882   0.155   2.014
  355SOL    HW1 1151   1.842   0.159   2.101
  355SOL    HW2 1152   1.829   0.092   1.966
  356SOL     OW 1153   2.005   1.593   0.624
  356SOL    HW1 1154   1.914   1.607   0.600
  356SOL    HW2 1155   2.051   1.585   0.540
  357SOL     OW 1156   0.740   1.367   1.031
  357SOL    HW1 1157   0.676   1.358   1.102
  357SOL    HW2 1158   0.725   1.290   0.976
  358SOL     OW 1159   2.444   1.261   0.554
  358SOL    HW1 1160   2.401   1.178   0.532
  358SOL    HW2 1161   2.373   1.320   0.579
  359SOL     OW 1162   0.324   1.308   0.087
  359SOL    HW1 1163   0.385   1.283   0.157
  359SOL    HW2 1164   0.335   1.403   0.079
  360SOL     OW 1165   2.049   0.461   1.722
  360SOL    HW1 1166   1.988   0.390   1.741
  360SOL    HW2 1167   2.024   0.492   1.634
  361SOL     OW 1168   0.408   0.327   0.352
  361SOL    HW1 1169   0.414   0.237   0.322
  361SOL    HW2 1170   0.484   0.337   0.410
  362SOL     OW 1171   1.671   1.980   0.393
  362SOL    HW1 1172   1.691   2.035   0.469
  362SOL    HW2 1173   1.575   1.985   0.385
  363SOL     OW 1174   1.140   2.048   2.441
  363SOL    HW1 1175   1.073   1.988   2.474
  363SOL    HW2 1176   1.133   2.041   2.346
  364SOL     OW 1177   1.361   0.186   1.115
  364SOL    HW1 1178   1.451   0.206   1.140
  364SOL    HW2 1179   1.354   0.219   1.025
  365SOL     OW 1180   0.556   0.078   1.092
  365SOL    HW1 1181   0.486   0.043   1.148
  365SOL    HW2 1182   0.539   0.039   1.006
  366SOL     OW 1183   2.199   2.004   1.545
  366SOL    HW1 1184   2.123   1.968   1.500
  366SOL    HW2 1185   2.268   2.005   1.478
  367SOL     OW 1186   2.136   2.350   1.028
  367SOL    HW1 1187   2.179   2.430   0.998
  367SOL    HW2 1188   2.161   2.342   1.120
  368SOL     OW 1189   1.035   0.881   2.482
  368SOL    HW1 1190   1.007   0.961   2.527
  368SOL    HW2 1191   0.985   0.811   2.524
  369SOL     OW 1192   2.473   1.393   1.939
  369SOL    HW1 1193   2.548   1.355   1.985
  369SOL    HW2 1194   2.472   1.349   1.854
  370SOL     OW 1195   0.861   1.286   1.856
  370SOL    HW1 1196   0.802   1.355   1.826
  370SOL    HW2 1197   0.949   1.321   1.838
  371SOL     OW 1198   0.523   0.336   2.088
  371SOL    HW1 1199   0.469   0.257   2.086
  371SOL    HW2 1200   0.591   0.317   2.153
  372SOL     OW 1201   0.896   0.865   0.512
  372SOL    HW1 1202   0.863   0.879   0.423
  372SOL    HW2 1203   0.962   0.797   0.502
  373SOL     OW 1204   0.650   0.824   1.302
  373SOL    HW1 1205   0.561   0.804   1.272
  373SOL    HW2 1206   0.640   0.904   1.353
  374SOL     OW 1207   0.387   1.697   0.464
  374SOL    HW1 1208   0.477   1.729   0.459
  374SOL    HW2 1209   0.387   1.636   0.538
  375SOL     OW 1210   0.877   1.160   1.308
  375SOL    HW1 1211   0.954   1.148   1.362
  375SOL    HW2 1212   0.908   1.209   1.232
  376SOL     OW 1213   2.094   2.418   1.374
  376SOL    HW1 1214   2.090   2.402   1.468
  376SOL    HW2 1215   2.041   2.348   1.336
  377SOL     OW 1216   0.911   0.206   1.713
  377SOL    HW1 1217   0.858   0.253   1.777
  377SOL    HW2 1218   0.898   0.255   1.632
  378SOL     OW 1219   2.380   1.386   1.677
  378SOL    HW1 1220   2.321   1.461   1.664
  378SOL    HW2 1221   2.322   1.310   1.678
  379SOL     OW 1222   0.938   1.528   0.936
  379SOL    HW1 1223   0.853   1.511   0.976
  379SOL    HW2 1224   0.993   1.559   1.008
  380SOL     OW 1225   1.978   1.352   0.979
  380SOL    HW1 1226   1.998   1.354   1.073
  380SOL    HW2 1227   2.013   1.269   0.949
  381SOL     OW 1228   0.994   0.878   2.207
  381SOL    HW1 1229   0.898   0.883   2.202
  381SOL    HW2 1230   1.013   0.886   2.301
  382SOL     OW 1231   1.402   2.384   0.549
  382SOL    HW1 1232   1.471   2.389   0.483
  382SOL    HW2 1233   1.353   2.305   0.526
  383SOL     OW 1234   0.335   2.062   0.153
  383SOL    HW1 1235   0.313   1.969   0.158
  383SOL    HW2 1236   0.326   2.093   0.244
  384SOL     OW 1237   0.292   1.683   0.808
  384SOL    HW1 1238   0.290   1.604   0.753
  384SOL    HW2 1239   0.384   1.697   0.828
  385SOL     OW 1240   0.175   0.286   0.575
  385SOL    HW1 1241   0.231   0.363   0.583
  385SOL    HW2 1242   0.236   0.213   0.568
  386SOL     OW 1243   0.571   1.667   2.164
  386SOL    HW1 1244   0.613   1.684   2.248
  386SOL    HW2 1245   0.482   1.699   2.175
  387SOL     OW 1246   1.594   1.327   1.672
  387SOL    HW1 1247   1.541   1.282   1.737
  387SOL    HW2 1248   1.671   1.272   1.661
  388SOL     OW 1249   0.651   1.220   2.214
  388SOL    HW1 1250   0.613   1.166   2.284
  388SOL    HW2 1251   0.646   1.165   2.136
  389SOL     OW 1252   0.237   0.862   0.527
  389SOL    HW1 1253   0.265   0.879   0.617
  389SOL    HW2 1254   0.304   0.804   0.492
  390SOL     OW 1255   1.475   1.431   1.094
  390SOL    HW1 1256   1.415   1.369   1.136
  390SOL    HW2 1257   1.548   1.376   1.063
  391SOL     OW 1258   0.943   2.396   1.713
  391SOL    HW1 1259   0.925   2.379   1.621
  391SOL    HW2 1260   0.946   2.491   1.719
  392SOL     OW 1261   0.326   1.762   2.213
  392SOL    HW1 1262   0.276   1.737   2.135
  392SOL    HW2 1263   0.264   1.809   2.268
  393SOL     OW 1264   0.041   1.166   2.301
  393SOL    HW1 1265   0.105   1.169   2.230
  393SOL    HW2 1266  -0.025   1.104   2.271
  394SOL     OW 1267   0.253   1.531   2.000
  394SOL    HW1 1268   0.257   1.489   1.914
  394SOL    HW2 1269   0.202   1.610   1.986
  395SOL     OW 1270   1.843   0.755   2.292
  395SOL    HW1 1271   1.910   0.726   2.229
  395SOL    HW2 1272   1.787   0.678   2.304
  396SOL     OW 1273   1.595   1.610   2.243
  396SOL    HW1 1274   1.659   1.646   2.181
  396SOL    HW2 1275   1.623   1.643   2.328
  397SOL     OW 1276   1.334   1.468   1.469
  397SOL    HW1 1277   1.267   1.536   1.481
  397SOL    HW2 1278   1.369   1.455   1.557
  398SOL     OW 1279   0.292   1.885   1.597
  398SOL    HW1 1280   0.350   1.846   1.663
  398SOL    HW2 1281   0.249   1.810   1.556
  399SOL     OW 1282   1.509   1.370   2.137
  399SOL    HW1 1283   1.557   1.447   2.166
  399SOL    HW2 1284   1.495   1.319   2.217
  400SOL     OW 1285   1.306   1.698   2.004
  400SOL    HW1 1286   1.260   1.775   1.971
  400SOL    HW2 1287   1.387   1.694   1.953
  401SOL     OW 1288   1.262   0.396   1.506
  401SOL    HW1 1289   1.186   0.339   1.488
  401SOL    HW2 1290   1.260   0.460   1.435
  402SOL     OW 1291   2.123   2.146   0.818
  402SOL    HW1 1292   2.116   2.215   0.884
  402SOL    HW2 1293   2.034   2.134   0.786
  403SOL     OW 1294   1.908   1.961   1.613
  403SOL    HW1 1295   1.832   1.934   1.665
  403SOL    HW2 1296   1.963   1.883   1.609
  404SOL     OW 1297   1.664   1.781   0.823
  404SOL    HW1 1298   1.742   1.725   0.831
  404SOL    HW2 1299   1.599   1.726   0.780
  405SOL     OW 1300   0.071   1.112   0.832
  405SOL    HW1 1301   0.141   1.139   0.890
  405SOL    HW2 1302   0.098   1.143   0.745
  406SOL     OW 1303   1.127   2.436   2.260
  406SOL    HW1 1304   1.087   2.502   2.316
  406SOL    HW2 1305   1.082   2.445   2.176
  407SOL     OW 1306   0.623   1.279   1.266
  407SOL    HW1 1307   0.696   1.242   1.316
  407SOL    HW2 1308   0.548   1.223   1.287
  408SOL     OW 1309   1.577   0.934   2.381
  408SOL    HW1 1310   1.631   0.926   2.302
  408SOL    HW2 1311   1.507   0.869   2.369
  409SOL     OW 1312   1.044   0.626   1.834
  409SOL    HW1 1313   1.051   0.683   1.758
  409SOL    HW2 1314   1.078   0.542   1.803
  410SOL     OW 1315   0.440   0.563   1.134
  410SOL    HW1 1316   0.507   0.588   1.070
  410SOL    HW2 1317   0.358   0.593   1.095
  411SOL     OW 1318   0.715   1.338   0.428
  411SOL    HW1 1319   0.759   1.263   0.467
  411SOL    HW2 1320   0.684   1.389   0.503
  412SOL     OW 1321   2.349   2.383   1.288
  412SOL    HW1 1322   2.398   2.323   1.344
  412SOL    HW2 1323   2.265   2.395   1.334
  413SOL     OW 1324   1.099   1.540   2.020
  413SOL    HW1 1325   1.169   1.603   2.009
  413SOL    HW2 1326   1.129   1.481   2.090
  414SOL     OW 1327   1.316   0.947   0.028
  414SOL    HW1 1328   1.253   0.887  -0.012
  414SOL    HW2 1329   1.268   0.988   0.100
  415SOL     OW 1330   2.146   2.368   2.014
  415SOL    HW1 1331   2.115   2.287   2.055
  415SOL    HW2 1332   2.191   2.414   2.085
  416SOL     OW 1333   1.144   0.704   0.591
  416SOL    HW1 1334   1.200   0.778   0.568
  416SOL    HW2 1335   1.169   0.635   0.529
  417SOL     OW 1336   1.192   0.693   0.242
  417SOL    HW1 1337   1.098   0.686   0.259
  417SOL    HW2 1338   1.222   0.763   0.300
  418SOL     OW 1339   1.849   0.697   1.332
  418SOL    HW1 1340   1.910   0.754   1.285
  418SOL    HW2 1341   1.903   0.624   1.362
  419SOL     OW 1342   1.148   1.015   1.117
  419SOL    HW1 1343   1.108   1.093   1.155
  419SOL    HW2 1344   1.119   0.943   1.173
  420SOL     OW 1345   1.046   0.269   2.289
  420SOL    HW1 1346   1.086   0.336   2.233
  420SOL    HW2 1347   1.115   0.243   2.349
  421SOL     OW 1348   2.211   1.520   1.988
  421SOL    HW1 1349   2.288   1.500   1.935
  421SOL    HW2 1350   2.160   1.438   1.988
  422SOL     OW 1351   0.161   0.698   0.233
  422SOL    HW1 1352   0.081   0.720   0.185
  422SOL    HW2 1353   0.215   0.777   0.226
  423SOL     OW 1354   0.099   1.312   1.157
  423SOL    HW1 1355   0.140   1.328   1.071
  423SOL    HW2 1356   0.134   1.227   1.184
  424SOL     OW 1357   2.357   0.391   1.206
  424SOL    HW1 1358   2.286   0.385   1.143
  424SOL    HW2 1359   2.364   0.303   1.243
  425SOL     OW 1360   1.135   1.368   1.793
  425SOL    HW1 1361   1.214   1.322   1.820
  425SOL    HW2 1362   1.133   1.446   1.848
  426SOL     OW 1363   1.408   0.977   1.015
  426SOL    HW1 1364   1.407   1.059   0.966
  426SOL    HW2 1365   1.317   0.966   1.044
  427SOL     OW 1366   0.288   0.687   1.401
  427SOL    HW1 1367   0.231   0.735   1.342
  427SOL    HW2 1368   0.328   0.619   1.346
  428SOL     OW 1369   1.380   0.240   0.626
  428SOL    HW1 1370   1.401   0.297   0.551
  428SOL    HW2 1371   1.436   0.164   0.615
  429SOL     OW 1372   1.885   2.079   0.236
  429SOL    HW1 1373   1.844   2.009   0.287
  429SOL    HW2 1374   1.964   2.039   0.200
  430SOL     OW 1375   0.399   0.544   0.162
  430SOL    HW1 1376   0.389   0.478   0.231
  430SOL    HW2 1377   0.322   0.600   0.173
  431SOL     OW 1378   1.262   2.128   1.233
  431SOL    HW1 1379   1.272   2.153   1.141
  431SOL    HW2 1380   1.293   2.205   1.282
  432SOL     OW 1381   0.440   0.089   0.081
  432SOL    HW1 1382   0.480   0.077  -0.006
  432SOL    HW2 1383   0.514   0.106   0.139
  433SOL     OW 1384   1.081   1.311   2.260
  433SOL    HW1 1385   0.994   1.350   2.250
  433SOL    HW2 1386   1.082   1.237   2.200
  434SOL     OW 1387   0.227   1.651   1.064
  434SOL    HW1 1388   0.278   1.572   1.083
  434SOL    HW2 1389   0.229   1.658   0.968
  435SOL     OW 1390   1.290   0.888   0.424
  435SOL    HW1 1391   1.381   0.910   0.407
  435SOL    HW2 1392   1.240   0.962   0.389
  436SOL     OW 1393   1.723   1.980   2.443
  436SOL    HW1 1394   1.744   1.888   2.459
  436SOL    HW2 1395   1.633   1.990   2.473
  437SOL     OW 1396   1.935   2.329   0.345
  437SOL    HW1 1397   1.918   2.241   0.310
  437SOL    HW2 1398   1.942   2.385   0.267
  438SOL     OW 1399   0.927   0.367   0.213
  438SOL    HW1 1400   0.969   0.432   0.157
  438SOL    HW2 1401   0.874   0.314   0.153
  439SOL     OW 1402   2.256   1.606   1.162
  439SOL    HW1 1403   2.162   1.619   1.154
  439SOL    HW2 1404   2.293   1.651   1.086
  440SOL     OW 1405   1.071   0.796   1.322
  440SOL    HW1 1406   1.022   0.816   1.402
  440SOL    HW2 1407   1.163   0.808   1.347
  441SOL     OW 1408   0.954   2.451   2.040
  441SOL    HW1 1409   1.004   2.453   1.959
  441SOL    HW2 1410   0.884   2.388   2.022
  442SOL     OW 1411   0.306   0.314   0.995
  442SOL    HW1 1412   0.246   0.385   1.018
  442SOL    HW2 1413   0.354   0.347   0.919
  443SOL     OW 1414   1.988   2.466   0.092
  443SOL    HW1 1415   1.944   2.432   0.014
  443SOL    HW2 1416   2.043   2.537   0.059
  444SOL     OW 1417   1.932   1.886   1.301
  444SOL    HW1 1418   1.955   1.846   1.217
  444SOL    HW2 1419   1.837   1.877   1.307
  445SOL     OW 1420   0.277   0.404   1.306
  445SOL    HW1 1421   0.297   0.415   1.213
  445SOL    HW2 1422   0.362   0.393   1.348
  446SOL     OW 1423   1.555   2.468   0.311
  446SOL    HW1 1424   1.601   2.549   0.332
  446SOL    HW2 1425   1.621   2.412   0.270
  447SOL     OW 1426   0.655   2.457   0.639
  447SOL    HW1 1427   0.747   2.475   0.623
  447SOL    HW2 1428   0.625   2.411   0.560
  448SOL     OW 1429   1.419   0.721   2.268
  448SOL    HW1 1430   1.347   0.719   2.205
  448SOL    HW2 1431   1.382   0.683   2.348
  449SOL     OW 1432   0.146   2.005   1.837
  449SOL    HW1 1433   0.077   2.055   1.793
  449SOL    HW2 1434   0.177   1.943   1.771
  450SOL     OW 1435   0.781   1.097   0.088
  450SOL    HW1 1436   0.744   1.186   0.092
  450SOL    HW2 1437   0.710   1.043   0.055
  451SOL     OW 1438   2.321   0.355   0.552
  451SOL    HW1 1439   2.319   0.307   0.470
  451SOL    HW2 1440   2.364   0.295   0.613
  452SOL     OW 1441   0.184   0.971   0.111
  452SOL    HW1 1442   0.166   1.054   0.153
  452SOL    HW2 1443   0.124   0.967   0.037
  453SOL     OW 1444   1.982   2.193   1.244
  453SOL    HW1 1445   1.936   2.185   1.328
  453SOL    HW2 1446   1.916   2.171   1.178
  454SOL     OW 1447   1.198   1.083   0.241
  454SOL    HW1 1448   1.277   1.138   0.248
  454SOL    HW2 1449   1.137   1.135   0.189
  455SOL     OW 1450   1.654   1.531   0.231
  455SOL    HW1 1451   1.663   1.469   0.159
  455SOL    HW2 1452   1.580   1.587   0.206
  456SOL     OW 1453   2.450   1.577   2.152
  456SOL    HW1 1454   2.542   1.562   2.173
  456SOL    HW2 1455   2.422   1.498   2.106
  457SOL     OW 1456   0.046   0.011   1.002
  457SOL    HW1 1457   0.052  -0.083   0.981
  457SOL    HW2 1458  -0.046   0.032   0.987
  458SOL     OW 1459   1.303   0.545   0.028
  458SOL    HW1 1460   1.267   0.607   0.091
  458SOL    HW2 1461   1.384   0.514   0.067
  459SOL     OW 1462   0.754   1.780   1.052
  459SOL    HW1 1463   0.849   1.774   1.066
  459SOL    HW2 1464   0.721   1.821   1.132
  460SOL     OW 1465   1.969   1.586   1.203
  460SOL    HW1 1466   1.984   1.512   1.262
  460SOL    HW2 1467   1.874   1.593   1.197
  461SOL     OW 1468   2.154   0.228   2.094
  461SOL    HW1 1469   2.078   0.192   2.048
  461SOL    HW2 1470   2.201   0.152   2.128
  462SOL     OW 1471   2.097   0.184   1.475
  462SOL    HW1 1472   2.062   0.107   1.429
  462SOL    HW2 1473   2.188   0.190   1.446
  463SOL     OW 1474   0.875   2.121   1.001
  463SOL    HW1 1475   0.784   2.130   1.029
  463SOL    HW2 1476   0.874   2.145   0.909
  464SOL     OW 1477   2.158   0.351   1.027
  464SOL    HW1 1478   2.080   0.316   1.070
  464SOL    HW2 1479   2.130   0.437   0.994
  465SOL     OW 1480   2.445   1.980   2.130
  465SOL    HW1 1481   2.434   2.062   2.179
  465SOL    HW2 1482   2.437   2.005   2.038
  466SOL     OW 1483   0.896   0.373   1.488
  466SOL    HW1 1484   0.856   0.456   1.465
  466SOL    HW2 1485   0.961   0.357   1.419
  467SOL     OW 1486   2.070   1.364   0.358
  467SOL    HW1 1487   2.010   1.294   0.335
  467SOL    HW2 1488   2.128   1.326   0.423
  468SOL     OW 1489   0.935   0.883   0.950
  468SOL    HW1 1490   0.931   0.796   0.991
  468SOL    HW2 1491   0.980   0.868   0.867
  469SOL     OW 1492   2.343   1.019   2.144
  469SOL    HW1 1493   2.351   0.977   2.058
  469SOL    HW2 1494   2.253   1.050   2.148
  470SOL     OW 1495   1.642   2.385   1.050
  470SOL    HW1 1496   1.619   2.429   1.132
  470SOL    HW2 1497   1.558   2.375   1.004
  471SOL     OW 1498   0.730   1.101   1.030
  471SOL    HW1 1499   0.786   1.037   0.985
  471SOL    HW2 1500   0.764   1.104   1.119
  472SOL     OW 1501   0.575   2.222   1.060
  472SOL    HW1 1502   0.570   2.270   0.977
  472SOL    HW2 1503   0.491   2.175   1.065
  473SOL     OW 1504   1.153   0.661   2.076
  473SOL    HW1 1505   1.110   0.737   2.114
  473SOL    HW2 1506   1.101   0.640   1.999
  474SOL     OW 1507   0.667   0.569   0.236
  474SOL    HW1 1508   0.671   0.595   0.328
  474SOL    HW2 1509   0.583   0.524   0.227
  475SOL     OW 1510   1.224   2.369   1.347
  475SOL    HW1 1511   1.285   2.419   1.402
  475SOL    HW2 1512   1.163   2.328   1.410
  476SOL     OW 1513   1.658   0.668   1.743
  476SOL    HW1 1514   1.565   0.678   1.766
  476SOL    HW2 1515   1.697   0.626   1.819
  477SOL     OW 1516   1.328   2.146   0.971
  477SOL    HW1 1517   1.390   2.109   0.907
  477SOL    HW2 1518   1.334   2.240   0.958
  478SOL     OW 1519   0.273   2.418   2.258
  478SOL    HW1 1520   0.197   2.412   2.200
  478SOL    HW2 1521   0.298   2.327   2.273
  479SOL     OW 1522   1.045   1.108   0.856
  479SOL    HW1 1523   1.140   1.118   0.851
  479SOL    HW2 1524   1.032   1.034   0.914
  480SOL     OW 1525   2.043   0.879   0.430
  480SOL    HW1 1526   1.958   0.860   0.390
  480SOL    HW2 1527   2.095   0.800   0.413
  481SOL     OW 1528   1.686   1.817   1.225
  481SOL    HW1 1529   1.691   1.722   1.223
  481SOL    HW2 1530   1.596   1.836   1.251
  482SOL     OW 1531   1.808   0.288   1.454
  482SOL    HW1 1532   1.866   0.260   1.525
  482SOL    HW2 1533   1.723   0.301   1.496
  483SOL     OW 1534   1.826   0.837   1.584
  483SOL    HW1 1535   1.805   0.831   1.491
  483SOL    HW2 1536   1.759   0.784   1.627
  484SOL     OW 1537   0.426   0.745   2.379
  484SOL    HW1 1538   0.357   0.776   2.320
  484SOL    HW2 1539   0.403   0.654   2.397
  485SOL     OW 1540   1.008   0.409   0.877
  485SOL    HW1 1541   0.947   0.365   0.936
  485SOL    HW2 1542   0.989   0.372   0.791
  486SOL     OW 1543   0.222   1.063   1.244
  486SOL    HW1 1544   0.192   0.973   1.260
  486SOL    HW2 1545   0.225   1.103   1.331
  487SOL     OW 1546   1.970   2.397   1.633
  487SOL    HW1 1547   2.048   2.416   1.685
  487SOL    HW2 1548   1.901   2.449   1.674
  488SOL     OW 1549   2.237   0.590   0.881
  488SOL    HW1 1550   2.330   0.589   0.858
  488SOL    HW2 1551   2.209   0.680   0.862
  489SOL     OW 1552   2.392   0.352   2.443
  489SOL    HW1 1553   2.418   0.261   2.459
  489SOL    HW2 1554   2.436   0.376   2.361
  490SOL     OW 1555   0.914   0.696   0.284
  490SOL    HW1 1556   0.851   0.769   0.287
  490SOL    HW2 1557   0.878   0.636   0.219
  491SOL     OW 1558   1.795   1.733   2.414
  491SOL    HW1 1559   1.831   1.650   2.445
  491SOL    HW2 1560   1.852   1.758   2.342
  492SOL     OW 1561   2.224   1.117   1.720
  492SOL    HW1 1562   2.282   1.045   1.745
  492SOL    HW2 1563   2.136   1.079   1.725
  493SOL     OW 1564   2.048   0.660   2.137
  493SOL    HW1 1565   2.048   0.597   2.209
  493SOL    HW2 1566   2.116   0.629   2.077
  494SOL     OW 1567   0.691   0.704   1.746
  494SOL    HW1 1568   0.748   0.659   1.809
  494SOL    HW2 1569   0.700   0.797   1.768
  495SOL     OW 1570   1.809   2.211   1.914
  495SOL    HW1 1571   1.898   2.181   1.932
  495SOL    HW2 1572   1.812   2.245   1.825
  496SOL     OW 1573   2.291   0.863   0.832
  496SOL    HW1 1574   2.345   0.842   0.756
  496SOL    HW2 1575   2.201   0.853   0.802
  497SOL     OW 1576   1.732   0.008   1.784
  497SOL    HW1 1577   1.697  -0.034   1.862
  497SOL    HW2 1578   1.660   0.060   1.750
  498SOL     OW 1579   2.361   0.149   1.378
  498SOL    HW1 1580   2.455   0.161   1.387
  498SOL    HW2 1581   2.351   0.072   1.323
  499SOL     OW 1582   1.255   1.886   1.020
  499SOL    HW1 1583   1.312   1.834   1.077
  499SOL    HW2 1584   1.283   1.976   1.034
  500SOL     OW 1585   2.168   2.006   1.158
  500SOL    HW1 1586   2.117   2.066   1.213
  500SOL    HW2 1587   2.102   1.961   1.104
  501SOL     OW 1588   2.247   0.013   2.218
  501SOL    HW1 1589   2.320   0.056   2.262
  501SOL    HW2 1590   2.216  -0.053   2.280
  502SOL     OW 1591   2.132   0.400   2.331
  502SOL    HW1 1592   2.214   0.372   2.371
  502SOL    HW2 1593   2.131   0.356   2.246
  503SOL     OW 1594   1.111   1.638   1.147
  503SOL    HW1 1595   1.061   1.717   1.169
  503SOL    HW2 1596   1.200   1.657   1.178
  504SOL     OW 1597   1.465   0.608   0.526
  504SOL    HW1 1598   1.548   0.655   0.522
  504SOL    HW2 1599   1.440   0.613   0.618
  505SOL     OW 1600   2.318   1.027   0.180
  505SOL    HW1 1601   2.391   1.080   0.146
  505SOL    HW2 1602   2.344   0.937   0.163
  506SOL     OW 1603   0.359   1.788   0.199
  506SOL    HW1 1604   0.370   1.729   0.124
  506SOL    HW2 1605   0.354   1.731   0.275
  507SOL     OW 1606   0.011   2.203   1.425
  507SOL    HW1 1607  -0.033   2.121   1.403
  507SOL    HW2 1608   0.087   2.205   1.367
  508SOL     OW 1609   2.108   0.450   0.678
  508SOL    HW1 1610   2.178   0.416   0.624
  508SOL    HW2 1611   2.152   0.492   0.752
  509SOL     OW 1612   0.625   1.922   1.673
  509SOL    HW1 1613   0.597   2.001   1.626
  509SOL    HW2 1614   0.691   1.953   1.736
  510SOL     OW 1615   2.203   2.307   2.421
  510SOL    HW1 1616   2.262   2.322   2.495
  510SOL    HW2 1617   2.129   2.260   2.459
  511SOL     OW 1618   1.095   1.118   2.053
  511SOL    HW1 1619   1.083   1.125   1.958
  511SOL    HW2 1620   1.049   1.037   2.077
  512SOL     OW 1621   0.056   2.156   0.046
  512SOL    HW1 1622   0.001   2.219   0.092
  512SOL    HW2 1623   0.137   2.154   0.097
  513SOL     OW 1624   1.093   1.957   2.160
  513SOL    HW1 1625   1.086   1.962   2.065
  513SOL    HW2 1626   1.061   1.870   2.182
  514SOL     OW 1627   1.336   1.583   3.375
  514SOL    HW1 1628   1.399   1.553   3.440
  514SOL    HW2 1629   1.287   1.652   3.420
  515SOL     OW 1630   2.010   1.314   4.152
  515SOL    HW1 1631   2.066   1.287   4.079
  515SOL    HW2 1632   2.058   1.288   4.230
  516SOL     OW 1633   2.228   0.646   4.149
  516SOL    HW1 1634   2.158   0.589   4.182
  516SOL    HW2 1635   2.281   0.588   4.094
  517SOL     OW 1636   0.645   2.336   2.864
  517SOL    HW1 1637   0.653   2.427   2.835
  517SOL    HW2 1638   0.709   2.289   2.811
  518SOL     OW 1639   1.951   1.302   3.767
  518SOL    HW1 1640   1.890   1.232   3.788
  518SOL    HW2 1641   2.021   1.294   3.832
  519SOL     OW 1642   1.871   1.514   4.014
  519SOL    HW1 1643   1.920   1.441   4.050
  519SOL    HW2 1644   1.814   1.543   4.086
  520SOL     OW 1645   1.433   0.206   4.675
  520SOL    HW1 1646   1.356   0.254   4.706
  520SOL    HW2 1647   1.506   0.243   4.725
  521SOL     OW 1648   0.349   2.234   4.467
  521SOL    HW1 1649   0.362   2.173   4.540
  521SOL    HW2 1650   0.292   2.187   4.407
  522SOL     OW 1651   0.321   2.468   4.323
  522SOL    HW1 1652   0.227   2.479   4.310
  522SOL    HW2 1653   0.329   2.384   4.370
  523SOL     OW 1654   1.799   1.729   4.340
  523SOL    HW1 1655   1.745   1.701   4.267
  523SOL    HW2 1656   1.756   1.808   4.373
  524SOL     OW 1657   1.397   1.675   3.675
  524SOL    HW1 1658   1.444   1.687   3.758
  524SOL    HW2 1659   1.411   1.583   3.653
  525SOL     OW 1660   1.760   2.124   3.097
  525SOL    HW1 1661   1.803   2.209   3.099
  525SOL    HW2 1662   1.831   2.061   3.110
  526SOL     OW 1663   0.387   0.934   3.264
  526SOL    HW1 1664   0.455   0.985   3.221
  526SOL    HW2 1665   0.378   0.976   3.350
  527SOL     OW 1666   1.713   0.723   2.972
  527SOL    HW1 1667   1.709   0.811   3.009
  527SOL    HW2 1668   1.727   0.737   2.879
  528SOL     OW 1669   1.615   0.275   3.606
  528SOL    HW1 1670   1.632   0.365   3.636
  528SOL    HW2 1671   1.701   0.244   3.577
  529SOL     OW 1672   1.889   0.021   3.546
  529SOL    HW1 1673   1.816  -0.026   3.586
  529SOL    HW2 1674   1.954  -0.046   3.528
  530SOL     OW 1675   1.616   0.022   3.810
  530SOL    HW1 1676   1.659   0.107   3.820
  530SOL    HW2 1677   1.543   0.025   3.873
  531SOL     OW 1678   0.611   1.975   2.639
  531SOL    HW1 1679   0.519   1.994   2.658
  531SOL    HW2 1680   0.610   1.884   2.610
  532SOL     OW 1681   2.330   1.260   3.379
  532SOL    HW1 1682   2.396   1.197   3.350
  532SOL    HW2 1683   2.381   1.334   3.411
  533SOL     OW 1684   1.804   1.252   4.762
  533SOL    HW1 1685   1.834   1.162   4.775
  533SOL    HW2 1686   1.876   1.306   4.794
  534SOL     OW 1687   2.227   0.648   2.887
  534SOL    HW1 1688   2.240   0.580   2.953
  534SOL    HW2 1689   2.304   0.641   2.831
  535SOL     OW 1690   0.703   1.503   3.159
  535SOL    HW1 1691   0.673   1.540   3.242
  535SOL    HW2 1692   0.798   1.498   3.168
  536SOL     OW 1693   2.227   1.768   4.649
  536SOL    HW1 1694   2.274   1.845   4.619
  536SOL    HW2 1695   2.285   1.695   4.627
  537SOL     OW 1696   1.982   1.963   3.152
  537SOL    HW1 1697   2.078   1.965   3.149
  537SOL    HW2 1698   1.958   1.883   3.106
  538SOL     OW 1699   0.479   1.755   3.896
  538SOL    HW1 1700   0.401   1.729   3.847
  538SOL    HW2 1701   0.445   1.801   3.973
  539SOL     OW 1702   0.564   0.727   3.265
  539SOL    HW1 1703   0.617   0.744   3.343
  539SOL    HW2 1704   0.505   0.802   3.260
  540SOL     OW 1705   0.930   2.433   3.922
  540SOL    HW1 1706   0.947   2.371   3.851
  540SOL    HW2 1707   0.858   2.488   3.890
  541SOL     OW 1708   0.114   1.833   2.944
  541SOL    HW1 1709   0.050   1.769   2.913
  541SOL    HW2 1710   0.198   1.790   2.931
  542SOL     OW 1711   1.140   2.142   3.228
  542SOL    HW1 1712   1.110   2.215   3.281
  542SOL    HW2 1713   1.195   2.090   3.288
  543SOL     OW 1714   0.134   1.400   3.220
  543SOL    HW1 1715   0.073   1.440   3.283
  543SOL    HW2 1716   0.077   1.353   3.159
  544SOL     OW 1717   1.193   0.410   4.628
  544SOL    HW1 1718   1.198   0.370   4.542
  544SOL    HW2 1719   1.202   0.504   4.612
  545SOL     OW 1720   0.981   1.838   2.508
  545SOL    HW1 1721   1.002   1.766   2.568
  545SOL    HW2 1722   0.965   1.795   2.424
  546SOL     OW 1723   2.025   1.067   4.607
  546SOL    HW1 1724   1.976   1.056   4.688
  546SOL    HW2 1725   1.994   0.998   4.550
  547SOL     OW 1726   1.961   0.982   4.278
  547SOL    HW1 1727   1.924   0.927   4.209
  547SOL    HW2 1728   1.935   0.939   4.360
  548SOL     OW 1729   2.269   1.906   3.057
  548SOL    HW1 1730   2.349   1.940   3.097
  548SOL    HW2 1731   2.290   1.816   3.032
  549SOL     OW 1732   1.846   0.308   4.291
  549SOL    HW1 1733   1.757   0.274   4.288
  549SOL    HW2 1734   1.883   0.271   4.371
  550SOL     OW 1735   1.262   2.367   4.365
  550SOL    HW1 1736   1.200   2.304   4.328
  550SOL    HW2 1737   1.327   2.314   4.411
  551SOL     OW 1738   1.773   0.930   3.634
  551SOL    HW1 1739   1.746   1.010   3.678
  551SOL    HW2 1740   1.868   0.927   3.647
  552SOL     OW 1741   1.572   0.761   3.546
  552SOL    HW1 1742   1.625   0.824   3.596
  552SOL    HW2 1743   1.508   0.816   3.499
  553SOL     OW 1744   0.878   1.008   4.367
  553SOL    HW1 1745   0.819   0.979   4.436
  553SOL    HW2 1746   0.865   1.103   4.361
  554SOL     OW 1747   0.348   0.135   4.562
  554SOL    HW1 1748   0.344   0.078   4.639
  554SOL    HW2 1749   0.366   0.076   4.489
  555SOL     OW 1750   1.291   1.519   4.736
  555SOL    HW1 1751   1.327   1.430   4.727
  555SOL    HW2 1752   1.343   1.572   4.676
  556SOL     OW 1753   1.221   2.270   2.824
  556SOL    HW1 1754   1.184   2.356   2.842
  556SOL    HW2 1755   1.194   2.250   2.734
  557SOL     OW 1756   0.825   0.446   2.986
  557SOL    HW1 1757   0.863   0.454   2.899
  557SOL    HW2 1758   0.781   0.529   3.001
  558SOL     OW 1759   0.436   1.450   3.069
  558SOL    HW1 1760   0.514   1.464   3.122
  558SOL    HW2 1761   0.407   1.361   3.091
  559SOL     OW 1762   2.455   0.186   3.197
  559SOL    HW1 1763   2.471   0.100   3.158
  559SOL    HW2 1764   2.537   0.234   3.183
  560SOL     OW 1765   1.508   2.028   3.289
  560SOL    HW1 1766   1.536   1.939   3.312
  560SOL    HW2 1767   1.585   2.068   3.249
  561SOL     OW 1768   0.266   1.158   3.050
  561SOL    HW1 1769   0.180   1.186   3.018
  561SOL    HW2 1770   0.277   1.069   3.016
  562SOL     OW 1771   1.937   1.511   2.585
  562SOL    HW1 1772   1.931   1.455   2.662
  562SOL    HW2 1773   1.974   1.455   2.517
  563SOL     OW 1774   0.857   1.911   2.833
  563SOL    HW1 1775   0.923   1.871   2.777
  563SOL    HW2 1776   0.907   1.964   2.896
  564SOL     OW 1777   0.365   2.325   2.773
  564SOL    HW1 1778   0.447   2.276   2.778
  564SOL    HW2 1779   0.348   2.332   2.679
  565SOL     OW 1780   2.151   1.612   2.867
  565SOL    HW1 1781   2.116   1.524   2.849
  565SOL    HW2 1782   2.235   1.614   2.822
  566SOL     OW 1783   1.553   0.989   4.395
  566SOL    HW1 1784   1.637   1.030   4.411
  566SOL    HW2 1785   1.555   0.909   4.449
  567SOL     OW 1786   0.063   0.489   4.279
  567SOL    HW1 1787   0.079   0.462   4.189
  567SOL    HW2 1788  -0.022   0.451   4.301
  568SOL     OW 1789   1.448   0.167   4.413
  568SOL    HW1 1790   1.451   0.174   4.509
  568SOL    HW2 1791   1.373   0.110   4.396
  569SOL     OW 1792   1.277   1.443   3.014
  569SOL    HW1 1793   1.235   1.440   3.100
  569SOL    HW2 1794   1.339   1.516   3.020
  570SOL     OW 1795   1.910   0.443   2.981
  570SOL    HW1 1796   1.842   0.436   3.048
  570SOL    HW2 1797   1.992   0.439   3.030
  571SOL     OW 1798   1.841   1.700   4.620
  571SOL    HW1 1799   1.898   1.632   4.653
  571SOL    HW2 1800   1.845   1.692   4.525
  572SOL     OW 1801   0.165   1.775   4.478
  572SOL    HW1 1802   0.088   1.806   4.525
  572SOL    HW2 1803   0.202   1.854   4.438
  573SOL     OW 1804   0.858   1.423   4.681
  573SOL    HW1 1805   0.835   1.474   4.604
  573SOL    HW2 1806   0.813   1.340   4.669
  574SOL     OW 1807   2.262   0.994   3.556
  574SOL    HW1 1808   2.250   0.961   3.467
  574SOL    HW2 1809   2.343   1.046   3.552
  575SOL     OW 1810   0.637   1.596   2.698
  575SOL    HW1 1811   0.610   1.632   2.783
  575SOL    HW2 1812   0.732   1.600   2.699
  576SOL     OW 1813   2.393   0.903   4.288
  576SOL    HW1 1814   2.414   0.865   4.203
  576SOL    HW2 1815   2.379   0.828   4.346
  577SOL     OW 1816   2.029   0.865   3.229
  577SOL    HW1 1817   1.951   0.812   3.248
  577SOL    HW2 1818   2.024   0.882   3.135
  578SOL     OW 1819   1.075   0.106   3.645
  578SOL    HW1 1820   1.159   0.118   3.601
  578SOL    HW2 1821   1.088   0.033   3.704
  579SOL     OW 1822   1.651   0.164   3.087
  579SOL    HW1 1823   1.660   0.100   3.158
  579SOL    HW2 1824   1.718   0.138   3.023
  580SOL     OW 1825   0.032   1.998   3.119
  580SOL    HW1 1826   0.062   1.951   3.042
  580SOL    HW2 1827   0.107   1.997   3.179
  581SOL     OW 1828   0.935   2.428   3.066
  581SOL    HW1 1829   0.961   2.444   2.975
  581SOL    HW2 1830   1.015   2.441   3.116
  582SOL     OW 1831   1.207   1.453   2.509
  582SOL    HW1 1832   1.179   1.369   2.473
  582SOL    HW2 1833   1.244   1.500   2.435
  583SOL     OW 1834   1.788   1.149   4.451
  583SOL    HW1 1835   1.728   1.212   4.493
  583SOL    HW2 1836   1.874   1.191   4.457
  584SOL     OW 1837   1.649   1.320   2.516
  584SOL    HW1 1838   1.583   1.254   2.496
  584SOL    HW2 1839   1.676   1.354   2.431
  585SOL     OW 1840   0.553   0.493   4.134
  585SOL    HW1 1841   0.567   0.582   4.168
  585SOL    HW2 1842   0.597   0.436   4.197
  586SOL     OW 1843   1.282   0.299   3.375
  586SOL    HW1 1844   1.300   0.275   3.284
  586SOL    HW2 1845   1.207   0.358   3.370
  587SOL     OW 1846   0.414   1.828   4.328
  587SOL    HW1 1847   0.501   1.838   4.290
  587SOL    HW2 1848   0.426   1.764   4.398
  588SOL     OW 1849   0.246   0.249   4.236
  588SOL    HW1 1850   0.271   0.242   4.329
  588SOL    HW2 1851   0.254   0.342   4.216
  589SOL     OW 1852   0.556   1.505   4.040
  589SOL    HW1 1853   0.525   1.576   3.985
  589SOL    HW2 1854   0.623   1.544   4.095
  590SOL     OW 1855   0.649   0.336   4.341
  590SOL    HW1 1856   0.606   0.335   4.427
  590SOL    HW2 1857   0.646   0.245   4.312
  591SOL     OW 1858   1.730   0.517   4.475
  591SOL    HW1 1859   1.726   0.489   4.566
  591SOL    HW2 1860   1.787   0.453   4.432
  592SOL     OW 1861   0.372   1.125   4.406
  592SOL    HW1 1862   0.314   1.090   4.338
  592SOL    HW2 1863   0.441   1.059   4.414
  593SOL     OW 1864   1.060   1.789   4.133
  593SOL    HW1 1865   1.081   1.839   4.054
  593SOL    HW2 1866   1.058   1.698   4.104
  594SOL     OW 1867   1.663   2.418   4.557
  594SOL    HW1 1868   1.586   2.401   4.611
  594SOL    HW2 1869   1.708   2.334   4.553
  595SOL     OW 1870   0.488   0.277   3.974
  595SOL    HW1 1871   0.509   0.219   4.046
  595SOL    HW2 1872   0.510   0.365   4.006
  596SOL     OW 1873   0.849   1.939   4.333
  596SOL    HW1 1874   0.842   1.861   4.388
  596SOL    HW2 1875   0.881   1.907   4.249
  597SOL     OW 1876   1.418   2.466   3.995
  597SOL    HW1 1877   1.409   2.546   4.047
  597SOL    HW2 1878   1.397   2.395   4.056
  598SOL     OW 1879   0.743   0.603   3.921
  598SOL    HW1 1880   0.724   0.682   3.871
  598SOL    HW2 1881   0.669   0.595   3.983
  599SOL     OW 1882   2.058   2.116   4.553
  599SOL    HW1 1883   2.043   2.055   4.625
  599SOL    HW2 1884   2.093   2.062   4.482
  600SOL     OW 1885   0.840   2.243   3.251
  600SOL    HW1 1886   0.877   2.269   3.166
  600SOL    HW2 1887   0.751   2.277   3.250
  601SOL     OW 1888   2.366   0.730   4.483
  601SOL    HW1 1889   2.453   0.693   4.497
  601SOL    HW2 1890   2.315   0.659   4.444
  602SOL     OW 1891   1.873   2.188   3.971
  602SOL    HW1 1892   1.895   2.112   4.024
  602SOL    HW2 1893   1.899   2.263   4.025
  603SOL     OW 1894   0.629   0.257   3.007
  603SOL    HW1 1895   0.706   0.312   3.016
  603SOL    HW2 1896   0.611   0.226   3.095
  604SOL     OW 1897   0.068   0.419   4.677
  604SOL    HW1 1898   0.061   0.334   4.635
  604SOL    HW2 1899   0.094   0.479   4.606
  605SOL     OW 1900   1.062   2.484   2.823
  605SOL    HW1 1901   1.112   2.565   2.824
  605SOL    HW2 1902   1.022   2.482   2.736
  606SOL     OW 1903   2.344   0.502   2.652
  606SOL    HW1 1904   2.377   0.457   2.575
  606SOL    HW2 1905   2.377   0.451   2.726
  607SOL     OW 1906   2.219   2.179   2.968
  607SOL    HW1 1907   2.303   2.184   2.923
  607SOL    HW2 1908   2.214   2.089   3.000
  608SOL     OW 1909   1.398   1.258   4.388
  608SOL    HW1 1910   1.435   1.307   4.461
  608SOL    HW2 1911   1.415   1.166   4.410
  609SOL     OW 1912   2.340   0.697   3.852
  609SOL    HW1 1913   2.375   0.610   3.835
  609SOL    HW2 1914   2.257   0.700   3.805
  610SOL     OW 1915   1.332   0.076   2.674
  610SOL    HW1 1916   1.364   0.082   2.763
  610SOL    HW2 1917   1.389   0.011   2.632
  611SOL     OW 1918   0.609   1.018   4.247
  611SOL    HW1 1919   0.671   1.065   4.191
  611SOL    HW2 1920   0.524   1.031   4.204
  612SOL     OW 1921   2.050   1.932   4.782
  612SOL    HW1 1922   2.034   1.940   4.876
  612SOL    HW2 1923   2.098   1.850   4.772
  613SOL     OW 1924   1.621   1.249   2.850
  613SOL    HW1 1925   1.538   1.292   2.830
  613SOL    HW2 1926   1.684   1.289   2.790
  614SOL     OW 1927   0.426   0.555   4.430
  614SOL    HW1 1928   0.428   0.536   4.336
  614SOL    HW2 1929   0.456   0.474   4.472
  615SOL     OW 1930   2.101   0.841   4.024
  615SOL    HW1 1931   2.009   0.839   4.049
  615SOL    HW2 1932   2.143   0.776   4.081
  616SOL     OW 1933   1.111   1.109   3.947
  616SOL    HW1 1934   1.190   1.161   3.962
  616SOL    HW2 1935   1.133   1.022   3.980
  617SOL     OW 1936   2.333   1.300   3.725
  617SOL    HW1 1937   2.424   1.318   3.704
  617SOL    HW2 1938   2.286   1.380   3.703
  618SOL     OW 1939   2.442   1.653   3.939
  618SOL    HW1 1940   2.373   1.645   3.873
  618SOL    HW2 1941   2.394   1.676   4.019
  619SOL     OW 1942   2.085   1.733   4.337
  619SOL    HW1 1943   2.112   1.671   4.404
  619SOL    HW2 1944   1.989   1.726   4.334
  620SOL     OW 1945   0.902   1.505   2.519
  620SOL    HW1 1946   0.942   1.426   2.556
  620SOL    HW2 1947   0.959   1.527   2.445
  621SOL     OW 1948   1.927   0.271   3.643
  621SOL    HW1 1949   1.910   0.290   3.736
  621SOL    HW2 1950   1.931   0.175   3.639
  622SOL     OW 1951   1.932   1.862   3.483
  622SOL    HW1 1952   1.904   1.889   3.396
  622SOL    HW2 1953   1.900   1.773   3.493
  623SOL     OW 1954   0.614   0.360   3.624
  623SOL    HW1 1955   0.576   0.272   3.622
  623SOL    HW2 1956   0.541   0.417   3.647
  624SOL     OW 1957   0.178   2.202   3.684
  624SOL    HW1 1958   0.112   2.225   3.619
  624SOL    HW2 1959   0.235   2.139   3.641
  625SOL     OW 1960   0.511   0.473   3.215
  625SOL    HW1 1961   0.587   0.415   3.213
  625SOL    HW2 1962   0.539   0.547   3.268
  626SOL     OW 1963   1.434   1.166   4.866
  626SOL    HW1 1964   1.379   1.109   4.920
  626SOL    HW2 1965   1.512   1.113   4.847
  627SOL     OW 1966   2.417   2.181   4.201
  627SOL    HW1 1967   2.323   2.192   4.193
  627SOL    HW2 1968   2.452   2.200   4.114
  628SOL     OW 1969   1.038   1.167   2.508
  628SOL    HW1 1970   1.049   1.157   2.413
  628SOL    HW2 1971   0.946   1.146   2.524
  629SOL     OW 1972   2.061   0.867   3.692
  629SOL    HW1 1973   2.130   0.920   3.652
  629SOL    HW2 1974   2.086   0.862   3.785
  630SOL     OW 1975   2.373   2.316   2.702
  630SOL    HW1 1976   2.320   2.380   2.750
  630SOL    HW2 1977   2.439   2.287   2.764
  631SOL     OW 1978   1.723   0.022   2.490
  631SOL    HW1 1979   1.631  -0.001   2.485
  631SOL    HW2 1980   1.755  -0.024   2.568
  632SOL     OW 1981   1.756   0.248   2.639
  632SOL    HW1 1982   1.820   0.270   2.707
  632SOL    HW2 1983   1.779   0.160   2.611
  633SOL     OW 1984   1.945   1.740   2.753
  633SOL    HW1 1985   2.013   1.701   2.809
  633SOL    HW2 1986   1.916   1.668   2.697
  634SOL     OW 1987   0.601   2.292   3.830
  634SOL    HW1 1988   0.627   2.279   3.738
  634SOL    HW2 1989   0.513   2.330   3.824
  635SOL     OW 1990   1.174   0.613   3.343
  635SOL    HW1 1991   1.152   0.646   3.256
  635SOL    HW2 1992   1.119   0.535   3.354
  636SOL     OW 1993   0.339   1.590   2.507
  636SOL    HW1 1994   0.248   1.611   2.485
  636SOL    HW2 1995   0.377   1.559   2.425
  637SOL     OW 1996   1.319   0.907   3.888
  637SOL    HW1 1997   1.366   0.836   3.932
  637SOL    HW2 1998   1.368   0.986   3.912
  638SOL     OW 1999   2.077   0.468   2.590
  638SOL    HW1 2000   2.089   0.452   2.496
  638SOL    HW2 2001   2.160   0.506   2.618
  639SOL     OW 2002   0.589   0.968   4.877
  639SOL    HW1 2003   0.500   1.002   4.864
  639SOL    HW2 2004   0.578   0.874   4.889
  640SOL     OW 2005   0.088   1.401   3.944
  640SOL    HW1 2006   0.022   1.380   4.010
  640SOL    HW2 2007   0.063   1.488   3.912
  641SOL     OW 2008   0.052   2.225   2.891
  641SOL    HW1 2009   0.147   2.234   2.894
  641SOL    HW2 2010   0.030   2.178   2.972
  642SOL     OW 2011   0.309   0.719   4.173
  642SOL    HW1 2012   0.216   0.702   4.160
  642SOL    HW2 2013   0.349   0.700   4.088
  643SOL     OW 2014   2.010   0.482   3.881
  643SOL    HW1 2015   2.019   0.476   3.786
  643SOL    HW2 2016   1.960   0.404   3.905
  644SOL     OW 2017   0.016   0.590   2.918
  644SOL    HW1 2018   0.063   0.518   2.960
  644SOL    HW2 2019   0.078   0.625   2.854
  645SOL     OW 2020   0.053   0.885   3.474
  645SOL    HW1 2021  -0.025   0.836   3.447
  645SOL    HW2 2022   0.047   0.967   3.425
  646SOL     OW 2023   2.055   1.000   2.585
  646SOL    HW1 2024   2.139   1.003   2.630
  646SOL    HW2 2025   2.006   0.930   2.628
  647SOL     OW 2026   0.505   1.020   2.845
  647SOL    HW1 2027   0.462   1.103   2.823
  647SOL    HW2 2028   0.450   0.953   2.804
  648SOL     OW 2029   1.050   0.879   4.180
  648SOL    HW1 2030   1.130   0.932   4.186
  648SOL    HW2 2031   0.988   0.923   4.237
  649SOL     OW 2032   0.341   0.986   4.150
  649SOL    HW1 2033   0.268   1.033   4.111
  649SOL    HW2 2034   0.347   0.905   4.100
  650SOL     OW 2035   1.475   2.136   4.088
  650SOL    HW1 2036   1.390   2.120   4.048
  650SOL    HW2 2037   1.533   2.153   4.014
  651SOL     OW 2038   0.152   0.098   3.887
  651SOL    HW1 2039   0.165   0.093   3.792
  651SOL    HW2 2040   0.228   0.146   3.919
  652SOL     OW 2041   0.051   2.397   4.603
  652SOL    HW1 2042   0.005   2.333   4.658
  652SOL    HW2 2043   0.025   2.376   4.514
  653SOL     OW 2044   2.417   2.194   4.759
  653SOL    HW1 2045   2.327   2.222   4.775
  653SOL    HW2 2046   2.456   2.185   4.846
  654SOL     OW 2047   0.269   0.868   4.658
  654SOL    HW1 2048   0.294   0.960   4.673
  654SOL    HW2 2049   0.293   0.851   4.567
  655SOL     OW 2050   1.677   1.390   3.097
  655SOL    HW1 2051   1.694   1.347   3.013
  655SOL    HW2 2052   1.691   1.483   3.080
  656SOL     OW 2053   0.976   1.314   4.081
  656SOL    HW1 2054   1.033   1.350   4.148
  656SOL    HW2 2055   1.017   1.232   4.055
  657SOL     OW 2056   0.847   0.239   3.502
  657SOL    HW1 2057   0.904   0.200   3.568
  657SOL    HW2 2058   0.767   0.262   3.550
  658SOL     OW 2059   2.041   1.508   4.724
  658SOL    HW1 2060   2.075   1.432   4.772
  658SOL    HW2 2061   2.108   1.526   4.658
  659SOL     OW 2062   2.327   0.989   3.963
  659SOL    HW1 2063   2.248   0.957   4.007
  659SOL    HW2 2064   2.338   0.931   3.888
  660SOL     OW 2065   1.479   2.357   2.509
  660SOL    HW1 2066   1.457   2.365   2.416
  660SOL    HW2 2067   1.398   2.329   2.551
  661SOL     OW 2068   2.085   1.271   4.433
  661SOL    HW1 2069   2.133   1.206   4.382
  661SOL    HW2 2070   2.065   1.227   4.516
  662SOL     OW 2071   0.022   0.850   4.823
  662SOL    HW1 2072   0.093   0.795   4.790
  662SOL    HW2 2073  -0.036   0.861   4.748
  663SOL     OW 2074   0.695   0.681   3.508
  663SOL    HW1 2075   0.752   0.605   3.495
  663SOL    HW2 2076   0.721   0.717   3.593
  664SOL     OW 2077   0.075   1.217   2.559
  664SOL    HW1 2078   0.052   1.204   2.467
  664SOL    HW2 2079   0.163   1.254   2.557
  665SOL     OW 2080   2.192   0.519   4.448
  665SOL    HW1 2081   2.152   0.513   4.361
  665SOL    HW2 2082   2.177   0.433   4.487
  666SOL     OW 2083   2.168   1.976   4.343
  666SOL    HW1 2084   2.134   1.887   4.343
  666SOL    HW2 2085   2.214   1.985   4.259
  667SOL     OW 2086   0.017   0.182   4.544
  667SOL    HW1 2087   0.031   0.094   4.580
  667SOL    HW2 2088   0.005   0.168   4.450
  668SOL     OW 2089   2.225   1.417   3.138
  668SOL    HW1 2090   2.252   1.384   3.224
  668SOL    HW2 2091   2.135   1.448   3.151
  669SOL     OW 2092   0.774   1.676   4.116
  669SOL    HW1 2093   0.838   1.671   4.187
  669SOL    HW2 2094   0.731   1.761   4.128
  670SOL     OW 2095   1.611   2.193   3.834
  670SOL    HW1 2096   1.627   2.281   3.801
  670SOL    HW2 2097   1.696   2.164   3.869
  671SOL     OW 2098   0.666   0.699   3.008
  671SOL    HW1 2099   0.716   0.780   3.012
  671SOL    HW2 2100   0.645   0.679   3.099
  672SOL     OW 2101   2.206   2.452   2.906
  672SOL    HW1 2102   2.149   2.509   2.957
  672SOL    HW2 2103   2.165   2.366   2.912
  673SOL     OW 2104   0.127   0.003   2.768
  673SOL    HW1 2105   0.124   0.010   2.672
  673SOL    HW2 2106   0.215  -0.032   2.786
  674SOL     OW 2107   0.267   0.729   3.463
  674SOL    HW1 2108   0.194   0.791   3.469
  674SOL    HW2 2109   0.321   0.762   3.391
  675SOL     OW 2110   1.116   0.335   2.876
  675SOL    HW1 2111   1.192   0.339   2.819
  675SOL    HW2 2112   1.041   0.332   2.816
  676SOL     OW 2113   2.397   1.734   3.363
  676SOL    HW1 2114   2.396   1.720   3.268
  676SOL    HW2 2115   2.355   1.820   3.374
  677SOL     OW 2116   0.366   2.045   3.592
  677SOL    HW1 2117   0.415   1.972   3.553
  677SOL    HW2 2118   0.372   2.029   3.686
  678SOL     OW 2119   2.476   0.758   3.135
  678SOL    HW1 2120   2.503   0.842   3.097
  678SOL    HW2 2121   2.498   0.693   3.068
  679SOL     OW 2122   0.338   2.110   4.715
  679SOL    HW1 2123   0.275   2.049   4.754
  679SOL    HW2 2124   0.416   2.102   4.770
  680SOL     OW 2125   0.102   1.118   3.973
  680SOL    HW1 2126   0.108   1.210   3.947
  680SOL    HW2 2127   0.009   1.099   3.973
  681SOL     OW 2128   0.826   2.147   4.797
  681SOL    HW1 2129   0.889   2.083   4.831
  681SOL    HW2 2130   0.841   2.147   4.702
  682SOL     OW 2131   0.671   1.942   3.742
  682SOL    HW1 2132   0.594   1.893   3.771
  682SOL    HW2 2133   0.673   2.019   3.799
  683SOL     OW 2134   0.120   0.471   3.549
  683SOL    HW1 2135   0.091   0.513   3.469
  683SOL    HW2 2136   0.041   0.458   3.600
  684SOL     OW 2137   0.667   0.976   4.555
  684SOL    HW1 2138   0.693   0.899   4.604
  684SOL    HW2 2139   0.599   0.945   4.495
  685SOL     OW 2140   0.079   2.216   3.421
  685SOL    HW1 2141   0.007   2.169   3.379
  685SOL    HW2 2142   0.158   2.187   3.375
  686SOL     OW 2143   1.481   1.102   3.748
  686SOL    HW1 2144   1.458   1.022   3.702
  686SOL    HW2 2145   1.399   1.152   3.751
  687SOL     OW 2146   0.448   1.290   2.827
  687SOL    HW1 2147   0.539   1.295   2.855
  687SOL    HW2 2148   0.408   1.370   2.863
  688SOL     OW 2149   2.392   1.646   3.101
  688SOL    HW1 2150   2.473   1.603   3.074
  688SOL    HW2 2151   2.329   1.574   3.112
  689SOL     OW 2152   1.915   1.002   4.847
  689SOL    HW1 2153   1.982   0.996   4.915
  689SOL    HW2 2154   1.892   0.911   4.827
  690SOL     OW 2155   1.071   2.170   4.269
  690SOL    HW1 2156   1.028   2.256   4.270
  690SOL    HW2 2157   1.002   2.109   4.293
  691SOL     OW 2158   1.412   0.581   4.335
  691SOL    HW1 2159   1.363   0.506   4.302
  691SOL    HW2 2160   1.364   0.610   4.412
  692SOL     OW 2161   1.804   0.733   3.263
  692SOL    HW1 2162   1.747   0.748   3.339
  692SOL    HW2 2163   1.770   0.653   3.224
  693SOL     OW 2164   0.369   1.135   4.835
  693SOL    HW1 2165   0.296   1.170   4.784
  693SOL    HW2 2166   0.363   1.180   4.919
  694SOL     OW 2167   0.042   0.111   4.136
  694SOL    HW1 2168   0.114   0.169   4.158
  694SOL    HW2 2169   0.058   0.086   4.045
  695SOL     OW 2170   0.930   0.630   3.640
  695SOL    HW1 2171   0.931   0.688   3.716
  695SOL    HW2 2172   1.016   0.587   3.642
  696SOL     OW 2173   0.559   0.412   4.932
  696SOL    HW1 2174   0.497   0.470   4.976
  696SOL    HW2 2175   0.515   0.388   4.851
  697SOL     OW 2176   0.627   2.464   4.048
  697SOL    HW1 2177   0.658   2.522   3.979
  697SOL    HW2 2178   0.627   2.377   4.008
  698SOL     OW 2179   1.306   1.239   3.381
  698SOL    HW1 2180   1.398   1.254   3.358
  698SOL    HW2 2181   1.257   1.276   3.307
  699SOL     OW 2182   1.288   1.765   2.931
  699SOL    HW1 2183   1.306   1.852   2.897
  699SOL    HW2 2184   1.206   1.739   2.889
  700SOL     OW 2185   1.525   0.976   4.122
  700SOL    HW1 2186   1.546   0.973   4.215
  700SOL    HW2 2187   1.534   0.885   4.092
  701SOL     OW 2188   0.241   1.356   4.248
  701SOL    HW1 2189   0.207   1.269   4.268
  701SOL    HW2 2190   0.184   1.388   4.178
  702SOL     OW 2191   1.047   1.552   3.961
  702SOL    HW1 2192   1.009   1.464   3.952
  702SOL    HW2 2193   0.986   1.609   3.914
  703SOL     OW 2194   1.464   1.695   3.118
  703SOL    HW1 2195   1.413   1.718   3.040
  703SOL    HW2 2196   1.398   1.665   3.180
  704SOL     OW 2197   0.797   0.183   4.721
  704SOL    HW1 2198   0.809   0.123   4.648
  704SOL    HW2 2199   0.884   0.218   4.738
  705SOL     OW 2200   1.685   1.971   4.395
  705SOL    HW1 2201   1.701   2.065   4.408
  705SOL    HW2 2202   1.638   1.944   4.474
  706SOL     OW 2203   1.564   1.269   3.330
  706SOL    HW1 2204   1.637   1.262   3.392
  706SOL    HW2 2205   1.601   1.317   3.255
  707SOL     OW 2206   0.639   1.766   2.930
  707SOL    HW1 2207   0.704   1.824   2.890
  707SOL    HW2 2208   0.659   1.768   3.024
  708SOL     OW 2209   1.892   0.853   4.494
  708SOL    HW1 2210   1.809   0.814   4.522
  708SOL    HW2 2211   1.959   0.795   4.530
  709SOL     OW 2212   0.603   1.066   3.117
  709SOL    HW1 2213   0.576   1.051   3.027
  709SOL    HW2 2214   0.698   1.055   3.116
  710SOL     OW 2215   0.781   2.204   4.516
  710SOL    HW1 2216   0.769   2.120   4.472
  710SOL    HW2 2217   0.697   2.222   4.557
  711SOL     OW 2218   1.137   2.271   2.581
  711SOL    HW1 2219   1.145   2.192   2.528
  711SOL    HW2 2220   1.078   2.328   2.531
  712SOL     OW 2221   0.417   0.703   2.921
  712SOL    HW1 2222   0.499   0.700   2.972
  712SOL    HW2 2223   0.445   0.724   2.832
  713SOL     OW 2224   0.990   2.118   2.958
  713SOL    HW1 2225   1.020   2.106   3.048
  713SOL    HW2 2226   1.044   2.190   2.925
  714SOL     OW 2227   2.263   0.119   3.417
  714SOL    HW1 2228   2.228   0.205   3.440
  714SOL    HW2 2229   2.334   0.137   3.355
  715SOL     OW 2230   0.682   0.100   2.782
  715SOL    HW1 2231   0.725   0.135   2.705
  715SOL    HW2 2232   0.671   0.175   2.840
  716SOL     OW 2233   0.680   1.547   4.440
  716SOL    HW1 2234   0.633   1.464   4.431
  716SOL    HW2 2235   0.636   1.592   4.512
  717SOL     OW 2236   2.403   0.775   2.588
  717SOL    HW1 2237   2.389   0.683   2.569
  717SOL    HW2 2238   2.437   0.812   2.506
  718SOL     OW 2239   1.846   0.090   2.923
  718SOL    HW1 2240   1.901   0.011   2.925
  718SOL    HW2 2241   1.902   0.157   2.885
  719SOL     OW 2242   1.712   2.426   3.268
  719SOL    HW1 2243   1.773   2.491   3.302
  719SOL    HW2 2244   1.689   2.373   3.345
  720SOL     OW 2245   1.742   0.473   4.730
  720SOL    HW1 2246   1.803   0.400   4.740
  720SOL    HW2 2247   1.662   0.443   4.773
  721SOL     OW 2248   0.016   0.553   3.310
  721SOL    HW1 2249   0.046   0.625   3.255
  721SOL    HW2 2250   0.031   0.474   3.257
  722SOL     OW 2251   1.756   1.688   3.024
  722SOL    HW1 2252   1.745   1.738   2.943
  722SOL    HW2 2253   1.676   1.706   3.074
  723SOL     OW 2254   2.250   0.139   2.655
  723SOL    HW1 2255   2.319   0.164   2.716
  723SOL    HW2 2256   2.183   0.099   2.710
  724SOL     OW 2257   1.407   0.689   4.042
  724SOL    HW1 2258   1.381   0.621   4.103
  724SOL    HW2 2259   1.405   0.647   3.956
  725SOL     OW 2260   1.390   1.727   4.200
  725SOL    HW1 2261   1.404   1.814   4.239
  725SOL    HW2 2262   1.337   1.745   4.122
  726SOL     OW 2263   1.886   0.199   3.299
  726SOL    HW1 2264   1.842   0.284   3.309
  726SOL    HW2 2265   1.907   0.172   3.388
  727SOL     OW 2266   2.079   1.124   3.331
  727SOL    HW1 2267   2.060   1.032   3.315
  727SOL    HW2 2268   2.173   1.132   3.320
  728SOL     OW 2269   0.129   0.489   4.038
  728SOL    HW1 2270   0.190   0.544   3.990
  728SOL    HW2 2271   0.097   0.425   3.974
  729SOL     OW 2272   0.625   1.609   3.389
  729SOL    HW1 2273   0.689   1.664   3.434
  729SOL    HW2 2274   0.606   1.538   3.451
  730SOL     OW 2275   1.403   0.568   3.790
  730SOL    HW1 2276   1.485   0.567   3.740
  730SOL    HW2 2277   1.334   0.557   3.724
  731SOL     OW 2278   1.107   1.648   2.684
  731SOL    HW1 2279   1.135   1.572   2.634
  731SOL    HW2 2280   1.047   1.613   2.750
  732SOL     OW 2281   0.205   1.241   4.603
  732SOL    HW1 2282   0.259   1.308   4.645
  732SOL    HW2 2283   0.245   1.230   4.516
  733SOL     OW 2284   1.711   2.273   2.656
  733SOL    HW1 2285   1.757   2.196   2.691
  733SOL    HW2 2286   1.629   2.239   2.622
  734SOL     OW 2287   0.731   0.147   3.819
  734SOL    HW1 2288   0.717   0.235   3.854
  734SOL    HW2 2289   0.660   0.134   3.756
  735SOL     OW 2290   1.413   0.391   2.850
  735SOL    HW1 2291   1.437   0.471   2.895
  735SOL    HW2 2292   1.478   0.382   2.780
  736SOL     OW 2293   0.050   2.392   4.317
  736SOL    HW1 2294   0.023   2.457   4.252
  736SOL    HW2 2295   0.010   2.310   4.288
  737SOL     OW 2296   1.374   1.174   4.043
  737SOL    HW1 2297   1.445   1.113   4.063
  737SOL    HW2 2298   1.417   1.248   4.001
  738SOL     OW 2299   2.036   1.728   3.993
  738SOL    HW1 2300   1.984   1.648   3.987
  738SOL    HW2 2301   2.015   1.777   3.914
  739SOL     OW 2302   1.036   1.661   4.754
  739SOL    HW1 2303   1.006   1.583   4.706
  739SOL    HW2 2304   1.129   1.667   4.735
  740SOL     OW 2305   1.655   0.560   3.686
  740SOL    HW1 2306   1.735   0.585   3.732
  740SOL    HW2 2307   1.627   0.638   3.640
  741SOL     OW 2308   1.613   0.862   2.630
  741SOL    HW1 2309   1.586   0.903   2.548
  741SOL    HW2 2310   1.587   0.924   2.698
  742SOL     OW 2311   0.681   1.897   3.231
  742SOL    HW1 2312   0.776   1.891   3.227
  742SOL    HW2 2313   0.658   1.963   3.166
  743SOL     OW 2314   1.392   2.389   3.357
  743SOL    HW1 2315   1.300   2.414   3.360
  743SOL    HW2 2316   1.421   2.415   3.270
  744SOL     OW 2317   0.554   2.397   4.529
  744SOL    HW1 2318   0.572   2.444   4.447
  744SOL    HW2 2319   0.477   2.344   4.511
  745SOL     OW 2320   2.316   2.327   3.191
  745SOL    HW1 2321   2.280   2.354   3.107
  745SOL    HW2 2322   2.244   2.281   3.234
  746SOL     OW 2323   2.261   1.643   4.152
  746SOL    HW1 2324   2.201   1.675   4.084
  746SOL    HW2 2325   2.222   1.673   4.234
  747SOL     OW 2326   0.018   1.832   3.612
  747SOL    HW1 2327  -0.017   1.862   3.528
  747SOL    HW2 2328   0.087   1.771   3.589
  748SOL     OW 2329   1.474   1.962   3.759
  748SOL    HW1 2330   1.536   2.031   3.782
  748SOL    HW2 2331   1.389   2.005   3.760
  749SOL     OW 2332   0.730   0.230   2.535
  749SOL    HW1 2333   0.652   0.284   2.520
  749SOL    HW2 2334   0.761   0.208   2.447
  750SOL     OW 2335   0.349   2.375   3.811
  750SOL    HW1 2336   0.332   2.460   3.771
  750SOL    HW2 2337   0.298   2.313   3.759
  751SOL     OW 2338   1.093   0.342   3.776
  751SOL    HW1 2339   1.076   0.258   3.733
  751SOL    HW2 2340   1.137   0.395   3.710
  752SOL     OW 2341   2.189   1.268   3.951
  752SOL    HW1 2342   2.238   1.267   3.868
  752SOL    HW2 2343   2.236   1.207   4.007
  753SOL     OW 2344   0.413   0.825   4.434
  753SOL    HW1 2345   0.427   0.731   4.437
  753SOL    HW2 2346   0.380   0.841   4.345
  754SOL     OW 2347   0.260   1.304   3.426
  754SOL    HW1 2348   0.351   1.275   3.421
  754SOL    HW2 2349   0.242   1.342   3.339
  755SOL     OW 2350   1.770   2.095   3.611
  755SOL    HW1 2351   1.693   2.082   3.556
  755SOL    HW2 2352   1.801   2.006   3.630
  756SOL     OW 2353   1.032   0.309   3.132
  756SOL    HW1 2354   1.095   0.325   3.062
  756SOL    HW2 2355   0.948   0.337   3.097
  757SOL     OW 2356   0.289   0.395   4.847
  757SOL    HW1 2357   0.212   0.422   4.799
  757SOL    HW2 2358   0.300   0.302   4.826
  758SOL     OW 2359   1.365   2.159   4.534
  758SOL    HW1 2360   1.291   2.159   4.595
  758SOL    HW2 2361   1.441   2.139   4.588
  759SOL     OW 2362   1.140   1.908   4.368
  759SOL    HW1 2363   1.228   1.933   4.341
  759SOL    HW2 2364   1.106   1.857   4.294
  760SOL     OW 2365   1.444   0.608   3.303
  760SOL    HW1 2366   1.349   0.616   3.316
  760SOL    HW2 2367   1.482   0.640   3.385
  761SOL     OW 2368   1.645   1.604   4.161
  761SOL    HW1 2369   1.569   1.657   4.138
  761SOL    HW2 2370   1.610   1.516   4.173
  762SOL     OW 2371   2.212   2.438   4.229
  762SOL    HW1 2372   2.208   2.419   4.322
  762SOL    HW2 2373   2.246   2.527   4.223
  763SOL     OW 2374   1.741   0.171   4.730
  763SOL    HW1 2375   1.738   0.127   4.815
  763SOL    HW2 2376   1.683   0.118   4.674
  764SOL     OW 2377   0.329   2.018   3.856
  764SOL    HW1 2378   0.308   1.964   3.933
  764SOL    HW2 2379   0.290   2.103   3.876
  765SOL     OW 2380   0.056   1.668   2.498
  765SOL    HW1 2381   0.095   1.751   2.471
  765SOL    HW2 2382  -0.038   1.681   2.488
  766SOL     OW 2383   0.668   0.225   3.270
  766SOL    HW1 2384   0.640   0.133   3.274
  766SOL    HW2 2385   0.731   0.234   3.342
  767SOL     OW 2386   1.580   1.988   4.657
  767SOL    HW1 2387   1.504   1.938   4.686
  767SOL    HW2 2388   1.638   1.989   4.733
  768SOL     OW 2389   2.075   0.049   3.136
  768SOL    HW1 2390   1.999   0.105   3.154
  768SOL    HW2 2391   2.132   0.062   3.212
  769SOL     OW 2392   0.646   1.345   2.535
  769SOL    HW1 2393   0.621   1.414   2.597
  769SOL    HW2 2394   0.633   1.385   2.449
  770SOL     OW 2395   2.314   0.383   4.081
  770SOL    HW1 2396   2.375   0.310   4.081
  770SOL    HW2 2397   2.230   0.343   4.059
  771SOL     OW 2398   0.098   1.129   4.296
  771SOL    HW1 2399   0.025   1.091   4.344
  771SOL    HW2 2400   0.112   1.068   4.223
  772SOL     OW 2401   1.589   0.586   2.613
  772SOL    HW1 2402   1.593   0.682   2.612
  772SOL    HW2 2403   1.670   0.559   2.656
  773SOL     OW 2404   0.487   2.402   3.338
  773SOL    HW1 2405   0.542   2.402   3.259
  773SOL    HW2 2406   0.407   2.447   3.311
  774SOL     OW 2407   2.374   1.986   3.806
  774SOL    HW1 2408   2.440   1.954   3.744
  774SOL    HW2 2409   2.294   1.990   3.754
  775SOL     OW 2410   1.537   0.216   4.175
  775SOL    HW1 2411   1.543   0.304   4.140
  775SOL    HW2 2412   1.480   0.224   4.252
  776SOL     OW 2413   2.154   0.623   3.631
  776SOL    HW1 2414   2.112   0.707   3.618
  776SOL    HW2 2415   2.213   0.613   3.556
  777SOL     OW 2416   0.852   1.117   3.044
  777SOL    HW1 2417   0.895   1.039   3.010
  777SOL    HW2 2418   0.918   1.158   3.101
  778SOL     OW 2419   2.065   1.281   4.885
  778SOL    HW1 2420   2.074   1.202   4.938
  778SOL    HW2 2421   2.144   1.331   4.903
  779SOL     OW 2422   2.475   1.658   2.777
  779SOL    HW1 2423   2.443   1.568   2.786
  779SOL    HW2 2424   2.516   1.661   2.690
  780SOL     OW 2425   0.486   1.870   3.430
  780SOL    HW1 2426   0.537   1.896   3.353
  780SOL    HW2 2427   0.540   1.802   3.471
  781SOL     OW 2428   1.395   2.421   4.734
  781SOL    HW1 2429   1.406   2.512   4.705
  781SOL    HW2 2430   1.300   2.410   4.741
  782SOL     OW 2431   0.233   1.961   3.304
  782SOL    HW1 2432   0.295   1.969   3.377
  782SOL    HW2 2433   0.219   1.867   3.294
  783SOL     OW 2434   0.692   1.261   4.061
  783SOL    HW1 2435   0.649   1.347   4.068
  783SOL    HW2 2436   0.785   1.282   4.051
  784SOL     OW 2437   1.146   1.450   3.245
  784SOL    HW1 2438   1.065   1.461   3.296
  784SOL    HW2 2439   1.215   1.481   3.304
  785SOL     OW 2440   1.242   0.498   3.588
  785SOL    HW1 2441   1.245   0.412   3.545
  785SOL    HW2 2442   1.241   0.561   3.515
  786SOL     OW 2443   0.629   2.093   3.045
  786SOL    HW1 2444   0.703   2.142   3.009
  786SOL    HW2 2445   0.558   2.156   3.050
  787SOL     OW 2446   1.847   0.827   2.728
  787SOL    HW1 2447   1.864   0.733   2.727
  787SOL    HW2 2448   1.771   0.838   2.670
  788SOL     OW 2449   0.551   0.039   4.821
  788SOL    HW1 2450   0.541  -0.041   4.769
  788SOL    HW2 2451   0.629   0.081   4.785
  789SOL     OW 2452   0.519   1.348   4.355
  789SOL    HW1 2453   0.442   1.390   4.317
  789SOL    HW2 2454   0.488   1.260   4.379
  790SOL     OW 2455   0.034   0.768   4.051
  790SOL    HW1 2456  -0.049   0.730   4.022
  790SOL    HW2 2457   0.064   0.820   3.976
  791SOL     OW 2458   1.711   1.280   3.563
  791SOL    HW1 2459   1.728   1.208   3.624
  791SOL    HW2 2460   1.798   1.306   3.533
  792SOL     OW 2461   2.388   1.416   2.707
  792SOL    HW1 2462   2.439   1.336   2.700
  792SOL    HW2 2463   2.343   1.424   2.623
  793SOL     OW 2464   1.154   0.062   3.162
  793SOL    HW1 2465   1.110   0.147   3.160
  793SOL    HW2 2466   1.242   0.080   3.127
  794SOL     OW 2467   0.190   0.014   2.501
  794SOL    HW1 2468   0.267   0.065   2.526
  794SOL    HW2 2469   0.207  -0.011   2.410
  795SOL     OW 2470   1.308   1.856   3.971
  795SOL    HW1 2471   1.253   1.932   3.951
  795SOL    HW2 2472   1.394   1.878   3.936
  796SOL     OW 2473   1.878   1.195   2.739
  796SOL    HW1 2474   1.914   1.153   2.660
  796SOL    HW2 2475   1.808   1.136   2.767
  797SOL     OW 2476   1.592   0.755   4.535
  797SOL    HW1 2477   1.626   0.666   4.521
  797SOL    HW2 2478   1.554   0.752   4.623
  798SOL     OW 2479   0.893   1.664   4.360
  798SOL    HW1 2480   0.805   1.628   4.375
  798SOL    HW2 2481   0.949   1.615   4.420
  799SOL     OW 2482   0.731   0.748   4.683
  799SOL    HW1 2483   0.746   0.723   4.775
  799SOL    HW2 2484   0.659   0.691   4.655
  800SOL     OW 2485   0.984   1.262   3.575
  800SOL    HW1 2486   1.036   1.249   3.496
  800SOL    HW2 2487   0.908   1.311   3.545
  801SOL     OW 2488   1.588   0.444   4.039
  801SOL    HW1 2489   1.556   0.480   3.956
  801SOL    HW2 2490   1.605   0.521   4.093
  802SOL     OW 2491   0.096   0.809   3.757
  802SOL    HW1 2492   0.102   0.842   3.668
  802SOL    HW2 2493   0.005   0.781   3.766
  803SOL     OW 2494   1.828   0.545   2.736
  803SOL    HW1 2495   1.907   0.522   2.687
  803SOL    HW2 2496   1.850   0.526   2.827
  804SOL     OW 2497   1.372   2.003   4.318
  804SOL    HW1 2498   1.360   2.052   4.399
  804SOL    HW2 2499   1.431   2.057   4.265
  805SOL     OW 2500   0.385   2.065   2.928
  805SOL    HW1 2501   0.476   2.042   2.946
  805SOL    HW2 2502   0.335   1.988   2.956
  806SOL     OW 2503   0.839   1.691   3.845
  806SOL    HW1 2504   0.764   1.726   3.797
  806SOL    HW2 2505   0.805   1.674   3.933
  807SOL     OW 2506   1.209   2.119   4.024
  807SOL    HW1 2507   1.160   2.116   3.942
  807SOL    HW2 2508   1.142   2.116   4.093
  808SOL     OW 2509   2.347   2.003   3.425
  808SOL    HW1 2510   2.300   2.066   3.370
  808SOL    HW2 2511   2.302   2.007   3.510
  809SOL     OW 2512   0.557   2.132   4.881
  809SOL    HW1 2513   0.645   2.170   4.877
  809SOL    HW2 2514   0.562   2.067   4.952
  810SOL     OW 2515   1.686   0.965   3.111
  810SOL    HW1 2516   1.744   1.040   3.125
  810SOL    HW2 2517   1.720   0.897   3.168
  811SOL     OW 2518   1.286   1.292   3.768
  811SOL    HW1 2519   1.283   1.367   3.828
  811SOL    HW2 2520   1.199   1.291   3.727
  812SOL     OW 2521   0.449   1.033   3.506
  812SOL    HW1 2522   0.515   0.998   3.566
  812SOL    HW2 2523   0.395   1.091   3.561
  813SOL     OW 2524   0.361   1.414   4.717
  813SOL    HW1 2525   0.453   1.409   4.694
  813SOL    HW2 2526   0.327   1.487   4.664
  814SOL     OW 2527   1.855   1.166   3.133
  814SOL    HW1 2528   1.916   1.169   3.207
  814SOL    HW2 2529   1.810   1.250   3.136
  815SOL     OW 2530   1.652   1.552   3.786
  815SOL    HW1 2531   1.590   1.493   3.744
  815SOL    HW2 2532   1.708   1.494   3.839
  816SOL     OW 2533   0.805   2.165   2.709
  816SOL    HW1 2534   0.744   2.095   2.684
  816SOL    HW2 2535   0.859   2.127   2.778
  817SOL     OW 2536   0.216   1.703   3.835
  817SOL    HW1 2537   0.221   1.710   3.740
  817SOL    HW2 2538   0.123   1.687   3.852
  818SOL     OW 2539   0.642   1.045   3.913
  818SOL    HW1 2540   0.718   1.100   3.897
  818SOL    HW2 2541   0.593   1.091   3.981
  819SOL     OW 2542   1.732   1.122   3.813
  819SOL    HW1 2543   1.639   1.114   3.790
  819SOL    HW2 2544   1.732   1.136   3.908
  820SOL     OW 2545   1.223   0.119   4.251
  820SOL    HW1 2546   1.137   0.128   4.209
  820SOL    HW2 2547   1.220   0.033   4.292
  821SOL     OW 2548   0.735   2.107   3.963
  821SOL    HW1 2549   0.826   2.081   3.945
  821SOL    HW2 2550   0.727   2.194   3.925
  822SOL     OW 2551   2.097   1.889   2.562
  822SOL    HW1 2552   2.181   1.923   2.595
  822SOL    HW2 2553   2.057   1.846   2.637
  823SOL     OW 2554   2.274   1.044   2.967
  823SOL    HW1 2555   2.186   1.007   2.970
  823SOL    HW2 2556   2.298   1.043   2.874
  824SOL     OW 2557   2.448   0.234   2.820
  824SOL    HW1 2558   2.509   0.280   2.878
  824SOL    HW2 2559   2.487   0.147   2.808
  825SOL     OW 2560   1.347   1.335   2.762
  825SOL    HW1 2561   1.291   1.388   2.705
  825SOL    HW2 2562   1.319   1.358   2.850
  826SOL     OW 2563   0.367   1.309   3.896
  826SOL    HW1 2564   0.418   1.349   3.967
  826SOL    HW2 2565   0.282   1.353   3.901
  827SOL     OW 2566   0.934   1.912   3.256
  827SOL    HW1 2567   1.013   1.966   3.263
  827SOL    HW2 2568   0.913   1.887   3.346
  828SOL     OW 2569   1.900   1.607   3.388
  828SOL    HW1 2570   1.924   1.533   3.443
  828SOL    HW2 2571   1.938   1.586   3.302
  829SOL     OW 2572   0.922   1.549   2.850
  829SOL    HW1 2573   0.850   1.494   2.880
  829SOL    HW2 2574   0.958   1.587   2.931
  830SOL     OW 2575   1.665   0.404   3.237
  830SOL    HW1 2576   1.632   0.324   3.195
  830SOL    HW2 2577   1.589   0.462   3.240
  831SOL     OW 2578   2.300   1.705   4.909
  831SOL    HW1 2579   2.222   1.741   4.953
  831SOL    HW2 2580   2.288   1.729   4.817
  832SOL     OW 2581   0.745   0.921   2.785
  832SOL    HW1 2582   0.657   0.952   2.803
  832SOL    HW2 2583   0.777   0.978   2.715
  833SOL     OW 2584   1.336   2.033   2.915
  833SOL    HW1 2585   1.324   2.121   2.880
  833SOL    HW2 2586   1.316   2.041   3.008
  834SOL     OW 2587   1.110   2.379   3.375
  834SOL    HW1 2588   1.019   2.408   3.375
  834SOL    HW2 2589   1.150   2.425   3.301
  835SOL     OW 2590   0.069   2.430   3.101
  835SOL    HW1 2591  -0.006   2.388   3.142
  835SOL    HW2 2592   0.066   2.403   3.010
  836SOL     OW 2593   0.247   0.038   3.295
  836SOL    HW1 2594   0.185   0.052   3.367
  836SOL    HW2 2595   0.195  -0.005   3.227
  837SOL     OW 2596   1.234   0.400   4.275
  837SOL    HW1 2597   1.200   0.418   4.187
  837SOL    HW2 2598   1.259   0.308   4.273
  838SOL     OW 2599   0.500   1.235   3.321
  838SOL    HW1 2600   0.512   1.177   3.247
  838SOL    HW2 2601   0.562   1.203   3.387
  839SOL     OW 2602   1.420   1.661   2.653
  839SOL    HW1 2603   1.349   1.599   2.638
  839SOL    HW2 2604   1.402   1.698   2.739
  840SOL     OW 2605   2.311   1.944   2.708
  840SOL    HW1 2606   2.326   2.028   2.751
  840SOL    HW2 2607   2.393   1.896   2.721
  841SOL     OW 2608   0.136   1.932   4.863
  841SOL    HW1 2609   0.110   1.998   4.927
  841SOL    HW2 2610   0.086   1.954   4.785
  842SOL     OW 2611   0.588   0.075   4.289
  842SOL    HW1 2612   0.626   0.043   4.207
  842SOL    HW2 2613   0.494   0.072   4.274
  843SOL     OW 2614   0.984   2.285   3.703
  843SOL    HW1 2615   0.945   2.237   3.630
  843SOL    HW2 2616   1.072   2.305   3.673
  844SOL     OW 2617   2.468   1.491   3.448
  844SOL    HW1 2618   2.483   1.495   3.542
  844SOL    HW2 2619   2.434   1.577   3.425
  845SOL     OW 2620   0.129   0.615   4.510
  845SOL    HW1 2621   0.122   0.587   4.418
  845SOL    HW2 2622   0.217   0.653   4.517
  846SOL     OW 2623   1.807   1.151   4.095
  846SOL    HW1 2624   1.898   1.180   4.110
  846SOL    HW2 2625   1.804   1.064   4.134
  847SOL     OW 2626   1.547   0.980   2.868
  847SOL    HW1 2627   1.567   1.073   2.858
  847SOL    HW2 2628   1.600   0.952   2.942
  848SOL     OW 2629   0.275   0.095   3.624
  848SOL    HW1 2630   0.296   0.167   3.564
  848SOL    HW2 2631   0.198   0.053   3.584
  849SOL     OW 2632   0.254   0.547   3.091
  849SOL    HW1 2633   0.318   0.529   3.160
  849SOL    HW2 2634   0.291   0.622   3.043
  850SOL     OW 2635   0.402   0.847   2.683
  850SOL    HW1 2636   0.454   0.804   2.615
  850SOL    HW2 2637   0.329   0.886   2.635
  851SOL     OW 2638   1.273   1.009   4.227
  851SOL    HW1 2639   1.359   0.980   4.258
  851SOL    HW2 2640   1.293   1.071   4.157
  852SOL     OW 2641   2.006   0.261   2.794
  852SOL    HW1 2642   2.043   0.279   2.708
  852SOL    HW2 2643   1.986   0.347   2.831
  853SOL     OW 2644   1.009   1.661   3.083
  853SOL    HW1 2645   0.964   1.742   3.108
  853SOL    HW2 2646   1.079   1.652   3.147
  854SOL     OW 2647   0.991   1.908   3.608
  854SOL    HW1 2648   0.941   1.985   3.581
  854SOL    HW2 2649   1.080   1.926   3.577
  855SOL     OW 2650   0.965   1.936   3.892
  855SOL    HW1 2651   0.918   1.855   3.913
  855SOL    HW2 2652   0.986   1.928   3.799
  856SOL     OW 2653   0.412   1.462   3.660
  856SOL    HW1 2654   0.359   1.392   3.699
  856SOL    HW2 2655   0.493   1.462   3.711
  857SOL     OW 2656   1.882   0.155   4.501
  857SOL    HW1 2657   1.842   0.159   4.588
  857SOL    HW2 2658   1.829   0.092   4.453
  858SOL     OW 2659   2.005   1.593   3.111
  858SOL    HW1 2660   1.914   1.607   3.087
  858SOL    HW2 2661   2.051   1.585   3.027
  859SOL     OW 2662   0.740   1.367   3.518
  859SOL    HW1 2663   0.676   1.358   3.589
  859SOL    HW2 2664   0.725   1.290   3.463
  860SOL     OW 2665   2.444   1.261   3.041
  860SOL    HW1 2666   2.401   1.178   3.019
  860SOL    HW2 2667   2.373   1.320   3.066
  861SOL     OW 2668   0.324   1.308   2.574
  861SOL    HW1 2669   0.385   1.283   2.644
  861SOL    HW2 2670   0.335   1.403   2.566
  862SOL     OW 2671   2.049   0.461   4.209
  862SOL    HW1 2672   1.988   0.390   4.228
  862SOL    HW2 2673   2.024   0.492   4.121
  863SOL     OW 2674   0.408   0.327   2.839
  863SOL    HW1 2675   0.414   0.237   2.809
  863SOL    HW2 2676   0.484   0.337   2.897
  864SOL     OW 2677   1.671   1.980   2.880
  864SOL    HW1 2678   1.691   2.035   2.956
  864SOL    HW2 2679   1.575   1.985   2.872
  865SOL     OW 2680   1.140   2.048   4.928
  865SOL    HW1 2681   1.073   1.988   4.961
  865SOL    HW2 2682   1.133   2.041   4.833
  866SOL     OW 2683   1.361   0.186   3.602
  866SOL    HW1 2684   1.451   0.206   3.627
  866SOL    HW2 2685   1.354   0.219   3.512
  867SOL     OW 2686   0.556   0.078   3.579
  867SOL    HW1 2687   0.486   0.043   3.635
  867SOL    HW2 2688   0.539   0.039   3.493
  868SOL     OW 2689   2.199   2.004   4.032
  868SOL    HW1 2690   2.123   1.968   3.987
  868SOL    HW2 2691   2.268   2.005   3.965
  869SOL     OW 2692   2.136   2.350   3.515
  869SOL    HW1 2693   2.179   2.430   3.485
  869SOL    HW2 2694   2.161   2.342   3.607
  870SOL     OW 2695   2.473   1.393   4.426
  870SOL    HW1 2696   2.548   1.355   4.472
  870SOL    HW2 2697   2.472   1.349   4.341
  871SOL     OW 2698   0.861   1.286   4.343
  871SOL    HW1 2699   0.802   1.355   4.313
  871SOL    HW2 2700   0.949   1.321   4.325
  872SOL     OW 2701   0.523   0.336   4.575
  872SOL    HW1 2702   0.469   0.257   4.573
  872SOL    HW2 2703   0.591   0.317   4.640
  873SOL     OW 2704   0.896   0.865   2.999
  873SOL    HW1 2705   0.863   0.879   2.910
  873SOL    HW2 2706   0.962   0.797   2.989
  874SOL     OW 2707   0.650   0.824   3.789
  874SOL    HW1 2708   0.561   0.804   3.759
  874SOL    HW2 2709   0.640   0.904   3.840
  875SOL     OW 2710   0.387   1.697   2.951
  875SOL    HW1 2711   0.477   1.729   2.946
  875SOL    HW2 2712   0.387   1.636   3.025
  876SOL     OW 2713   0.877   1.160   3.795
  876SOL    HW1 2714   0.954   1.148   3.849
  876SOL    HW2 2715   0.908   1.209   3.719
  877SOL     OW 2716   2.094   2.418   3.861
  877SOL    HW1 2717   2.090   2.402   3.955
  877SOL    HW2 2718   2.041   2.348   3.823
  878SOL     OW 2719   0.911   0.206   4.200
  878SOL    HW1 2720   0.858   0.253   4.264
  878SOL    HW2 2721   0.898   0.255   4.119
  879SOL     OW 2722   2.380   1.386   4.164
  879SOL    HW1 2723   2.321   1.461   4.151
  879SOL    HW2 2724   2.322   1.310   4.165
  880SOL     OW 2725   0.938   1.528   3.423
  880SOL    HW1 2726   0.853   1.511   3.463
  880SOL    HW2 2727   0.993   1.559   3.495
  881SOL     OW 2728   1.978   1.352   3.466
  881SOL    HW1 2729   1.998   1.354   3.560
  881SOL    HW2 2730   2.013   1.269   3.436
  882SOL     OW 2731   0.994   0.878   4.694
  882SOL    HW1 2732   0.898   0.883   4.689
  882SOL    HW2 2733   1.013   0.886   4.788
  883SOL     OW 2734   1.402   2.384   3.036
  883SOL    HW1 2735   1.471   2.389   2.970
  883SOL    HW2 2736   1.353   2.305   3.013
  884SOL     OW 2737   0.335   2.062   2.640
  884SOL    HW1 2738   0.313   1.969   2.645
  884SOL    HW2 2739   0.326   2.093   2.731
  885SOL     OW 2740   0.292   1.683   3.295
  885SOL    HW1 2741   0.290   1.604   3.240
  885SOL    HW2 2742   0.384   1.697   3.315
  886SOL     OW 2743   0.175   0.286   3.062
  886SOL    HW1 2744   0.231   0.363   3.070
  886SOL    HW2 2745   0.236   0.213   3.055
  887SOL     OW 2746   0.571   1.667   4.651
  887SOL    HW1 2747   0.613   1.684   4.735
  887SOL    HW2 2748   0.482   1.699   4.662
  888SOL     OW 2749   1.594   1.327   4.159
  888SOL    HW1 2750   1.541   1.282   4.224
  888SOL    HW2 2751   1.671   1.272   4.148
  889SOL     OW 2752   0.651   1.220   4.701
  889SOL    HW1 2753   0.613   1.166   4.771
  889SOL    HW2 2754   0.646   1.165   4.623
  890SOL     OW 2755   0.237   0.862   3.014
  890SOL    HW1 2756   0.265   0.879   3.104
  890SOL    HW2 2757   0.304   0.804   2.979
  891SOL     OW 2758   1.475   1.431   3.581
  891SOL    HW1 2759   1.415   1.369   3.623
  891SOL    HW2 2760   1.548   1.376   3.550
  892SOL     OW 2761   0.943   2.396   4.200
  892SOL    HW1 2762   0.925   2.379   4.108
  892SOL    HW2 2763   0.946   2.491   4.206
  893SOL     OW 2764   0.326   1.762   4.700
  893SOL    HW1 2765   0.276   1.737   4.622
  893SOL    HW2 2766   0.264   1.809   4.755
  894SOL     OW 2767   0.041   1.166   4.788
  894SOL    HW1 2768   0.105   1.169   4.717
  894SOL    HW2 2769  -0.025   1.104   4.758
  895SOL     OW 2770   0.253   1.531   4.487
  895SOL    HW1 2771   0.257   1.489   4.401
  895SOL    HW2 2772   0.202   1.610   4.473
  896SOL     OW 2773   1.843   0.755   4.779
  896SOL    HW1 2774   1.910   0.726   4.716
  896SOL    HW2 2775   1.787   0.678   4.791
  897SOL     OW 2776   1.595   1.610   4.730
  897SOL    HW1 2777   1.659   1.646   4.668
  897SOL    HW2 2778   1.623   1.643   4.815
  898SOL     OW 2779   1.334   1.468   3.956
  898SOL    HW1 2780   1.267   1.536   3.968
  898SOL    HW2 2781   1.369   1.455   4.044
  899SOL     OW 2782   0.292   1.885   4.084
  899SOL    HW1 2783   0.350   1.846   4.150
  899SOL    HW2 2784   0.249   1.810   4.043
  900SOL     OW 2785   1.509   1.370   4.624
  900SOL    HW1 2786   1.557   1.447   4.653
  900SOL    HW2 2787   1.495   1.319   4.704
  901SOL     OW 2788   1.306   1.698   4.491
  901SOL    HW1 2789   1.260   1.775   4.458
  901SOL    HW2 2790   1.387   1.694   4.440
  902SOL     OW 2791   1.262   0.396   3.993
  902SOL    HW1 2792   1.186   0.339   3.975
  902SOL    HW2 2793   1.260   0.460   3.922
  903SOL     OW 2794   2.123   2.146   3.305
  903SOL    HW1 2795   2.116   2.215   3.371
  903SOL    HW2 2796   2.034   2.134   3.273
  904SOL     OW 2797   1.908   1.961   4.100
  904SOL    HW1 2798   1.832   1.934   4.152
  904SOL    HW2 2799   1.963   1.883   4.096
  905SOL     OW 2800   1.664   1.781   3.310
  905SOL    HW1 2801   1.742   1.725   3.318
  905SOL    HW2 2802   1.599   1.726   3.267
  906SOL     OW 2803   0.071   1.112   3.319
  906SOL    HW1 2804   0.141   1.139   3.377
  906SOL    HW2 2805   0.098   1.143   3.232
  907SOL     OW 2806   1.127   2.436   4.747
  907SOL    HW1 2807   1.087   2.502   4.803
  907SOL    HW2 2808   1.082   2.445   4.663
  908SOL     OW 2809   0.623   1.279   3.753
  908SOL    HW1 2810   0.696   1.242   3.803
  908SOL    HW2 2811   0.548   1.223   3.774
  909SOL     OW 2812   1.577   0.934   4.868
  909SOL    HW1 2813   1.631   0.926   4.789
  909SOL    HW2 2814   1.507   0.869   4.856
  910SOL     OW 2815   1.044   0.626   4.321
  910SOL    HW1 2816   1.051   0.683   4.245
  910SOL    HW2 2817   1.078   0.542   4.290
  911SOL     OW 2818   0.440   0.563   3.621
  911SOL    HW1 2819   0.507   0.588   3.557
  911SOL    HW2 2820   0.358   0.593   3.582
  912SOL     OW 2821   0.715   1.338   2.915
  912SOL    HW1 2822   0.759   1.263   2.954
  912SOL    HW2 2823   0.684   1.389   2.990
  913SOL     OW 2824   2.349   2.383   3.775
  913SOL    HW1 2825   2.398   2.323   3.831
  913SOL    HW2 2826   2.265   2.395   3.821
  914SOL     OW 2827   1.099   1.540   4.507
  914SOL    HW1 2828   1.169   1.603   4.496
  914SOL    HW2 2829   1.129   1.481   4.577
  915SOL     OW 2830   1.316   0.947   2.515
  915SOL    HW1 2831   1.253   0.887   2.475
  915SOL    HW2 2832   1.268   0.988   2.587
  916SOL     OW 2833   2.146   2.368   4.501
  916SOL    HW1 2834   2.115   2.287   4.542
  916SOL    HW2 2835   2.191   2.414   4.572
  917SOL     OW 2836   1.144   0.704   3.078
  917SOL    HW1 2837   1.200   0.778   3.055
  917SOL    HW2 2838   1.169   0.635   3.016
  918SOL     OW 2839   1.192   0.693   2.729
  918SOL    HW1 2840   1.098   0.686   2.746
  918SOL    HW2 2841   1.222   0.763   2.787
  919SOL     OW 2842   1.849   0.697   3.819
  919SOL    HW1 2843   1.910   0.754   3.772
  919SOL    HW2 2844   1.903   0.624   3.849
  920SOL     OW 2845   1.148   1.015   3.604
  920SOL    HW1 2846   1.108   1.093   3.642
  920SOL    HW2 2847   1.119   0.943   3.660
  921SOL     OW 2848   1.046   0.269   4.776
  921SOL    HW1 2849   1.086   0.336   4.720
  921SOL    HW2 2850   1.115   0.243   4.836
  922SOL     OW 2851   2.211   1.520   4.475
  922SOL    HW1 2852   2.288   1.500   4.422
  922SOL    HW2 2853   2.160   1.438   4.475
  923SOL     OW 2854   0.161   0.698   2.720
  923SOL    HW1 2855   0.081   0.720   2.672
  923SOL    HW2 2856   0.215   0.777   2.713
  924SOL     OW 2857   0.099   1.312   3.644
  924SOL    HW1 2858   0.140   1.328   3.558
  924SOL    HW2 2859   0.134   1.227   3.671
  925SOL     OW 2860   2.357   0.391   3.693
  925SOL    HW1 2861   2.286   0.385   3.630
  925SOL    HW2 2862   2.364   0.303   3.730
  926SOL     OW 2863   1.135   1.368   4.280
  926SOL    HW1 2864   1.214   1.322   4.307
  926SOL    HW2 2865   1.133   1.446   4.335
  927SOL     OW 2866   1.408   0.977   3.502
  927SOL    HW1 2867   1.407   1.059   3.453
  927SOL    HW2 2868   1.317   0.966   3.531
  928SOL     OW 2869   0.288   0.687   3.888
  928SOL    HW1 2870   0.231   0.735   3.829
  928SOL    HW2 2871   0.328   0.619   3.833
  929SOL     OW 2872   1.380   0.240   3.113
  929SOL    HW1 2873   1.401   0.297   3.038
  929SOL    HW2 2874   1.436   0.164   3.102
  930SOL     OW 2875   1.885   2.079   2.723
  930SOL    HW1 2876   1.844   2.009   2.774
  930SOL    HW2 2877   1.964   2.039   2.687
  931SOL     OW 2878   0.399   0.544   2.649
  931SOL    HW1 2879   0.389   0.478   2.718
  931SOL    HW2 2880   0.322   0.600   2.660
  932SOL     OW 2881   1.262   2.128   3.720
  932SOL    HW1 2882   1.272   2.153   3.628
  932SOL    HW2 2883   1.293   2.205   3.769
  933SOL     OW 2884   0.440   0.089   2.568
  933SOL    HW1 2885   0.480   0.077   2.481
  933SOL    HW2 2886   0.514   0.106   2.626
  934SOL     OW 2887   1.081   1.311   4.747
  934SOL    HW1 2888   0.994   1.350   4.737
  934SOL    HW2 2889   1.082   1.237   4.687
  935SOL     OW 2890   0.227   1.651   3.551
  935SOL    HW1 2891   0.278   1.572   3.570
  935SOL    HW2 2892   0.229   1.658   3.455
  936SOL     OW 2893   1.290   0.888   2.911
  936SOL    HW1 2894   1.381   0.910   2.894
  936SOL    HW2 2895   1.240   0.962   2.876
  937SOL     OW 2896   1.935   2.329   2.832
  937SOL    HW1 2897   1.918   2.241   2.797
  937SOL    HW2 2898   1.942   2.385   2.754
  938SOL     OW 2899   0.927   0.367   2.700
  938SOL    HW1 2900   0.969   0.432   2.644
  938SOL    HW2 2901   0.874   0.314   2.640
  939SOL     OW 2902   2.256   1.606   3.649
  939SOL    HW1 2903   2.162   1.619   3.641
  939SOL    HW2 2904   2.293   1.651   3.573
  940SOL     OW 2905   1.071   0.796   3.809
  940SOL    HW1 2906   1.022   0.816   3.889
  940SOL    HW2 2907   1.163   0.808   3.834
  941SOL     OW 2908   0.954   2.451   4.527
  941SOL    HW1 2909   1.004   2.453   4.446
  941SOL    HW2 2910   0.884   2.388   4.509
  942SOL     OW 2911   0.306   0.314   3.482
  942SOL    HW1 2912   0.246   0.385   3.505
  942SOL    HW2 2913   0.354   0.347   3.406
  943SOL     OW 2914   1.988   2.466   2.579
  943SOL    HW1 2915   1.944   2.432   2.501
  943SOL    HW2 2916   2.043   2.537   2.546
  944SOL     OW 2917   1.932   1.886   3.788
  944SOL    HW1 2918   1.955   1.846   3.704
  944SOL    HW2 2919   1.837   1.877   3.794
  945SOL     OW 2920   0.277   0.404   3.793
  945SOL    HW1 2921   0.297   0.415   3.700
  945SOL    HW2 2922   0.362   0.393   3.835
  946SOL     OW 2923   1.555   2.468   2.798
  946SOL    HW1 2924   1.601   2.549   2.819
  946SOL    HW2 2925   1.621   2.412   2.757
  947SOL     OW 2926   0.655   2.457   3.126
  947SOL    HW1 2927   0.747   2.475   3.110
  947SOL    HW2 2928   0.625   2.411   3.047
  948SOL     OW 2929   1.419   0.721   4.755
  948SOL    HW1 2930   1.347   0.719   4.692
  948SOL    HW2 2931   1.382   0.683   4.835
  949SOL     OW 2932   0.146   2.005   4.324
  949SOL    HW1 2933   0.077   2.055   4.280
  949SOL    HW2 2934   0.177   1.943   4.258
  950SOL     OW 2935   0.781   1.097   2.575
  950SOL    HW1 2936   0.744   1.186   2.579
  950SOL    HW2 2937   0.710   1.043   2.542
  951SOL     OW 2938   2.321   0.355   3.039
  951SOL    HW1 2939   2.319   0.307   2.957
  951SOL    HW2 2940   2.364   0.295   3.100
  952SOL     OW 2941   0.184   0.971   2.598
  952SOL    HW1 2942   0.166   1.054   2.640
  952SOL    HW2 2943   0.124   0.967   2.524
  953SOL     OW 2944   1.982   2.193   3.731
  953SOL    HW1 2945   1.936   2.185   3.815
  953SOL    HW2 2946   1.916   2.171   3.665
  954SOL     OW 2947   1.198   1.083   2.728
  954SOL    HW1 2948   1.277   1.138   2.735
  954SOL    HW2 2949   1.137   1.135   2.676
  955SOL     OW 2950   1.654   1.531   2.718
  955SOL    HW1 2951   1.663   1.469   2.646
  955SOL    HW2 2952   1.580   1.587   2.693
  956SOL     OW 2953   2.450   1.577   4.639
  956SOL    HW1 2954   2.542   1.562   4.660
  956SOL    HW2 2955   2.422   1.498   4.593
  957SOL     OW 2956   0.046   0.011   3.489
  957SOL    HW1 2957   0.052  -0.083   3.468
  957SOL    HW2 2958  -0.046   0.032   3.474
  958SOL     OW 2959   1.303   0.545   2.515
  958SOL    HW1 2960   1.267   0.607   2.578
  958SOL    HW2 2961   1.384   0.514   2.554
  959SOL     OW 2962   0.754   1.780   3.539
  959SOL    HW1 2963   0.849   1.774   3.553
  959SOL    HW2 2964   0.721   1.821   3.619
  960SOL     OW 2965   1.969   1.586   3.690
  960SOL    HW1 2966   1.984   1.512   3.749
  960SOL    HW2 2967   1.874   1.593   3.684
  961SOL     OW 2968   2.154   0.228   4.581
  961SOL    HW1 2969   2.078   0.192   4.535
  961SOL    HW2 2970   2.201   0.152   4.615
  962SOL     OW 2971   2.097   0.184   3.962
  962SOL    HW1 2972   2.062   0.107   3.916
  962SOL    HW2 2973   2.188   0.190   3.933
  963SOL     OW 2974   0.875   2.121   3.488
  963SOL    HW1 2975   0.784   2.130   3.516
  963SOL    HW2 2976   0.874   2.145   3.396
  964SOL     OW 2977   2.158   0.351   3.514
  964SOL    HW1 2978   2.080   0.316   3.557
  964SOL    HW2 2979   2.130   0.437   3.481
  965SOL     OW 2980   2.445   1.980   4.617
  965SOL    HW1 2981   2.434   2.062   4.666
  965SOL    HW2 2982   2.437   2.005   4.525
  966SOL     OW 2983   0.896   0.373   3.975
  966SOL    HW1 2984   0.856   0.456   3.952
  966SOL    HW2 2985   0.961   0.357   3.906
  967SOL     OW 2986   2.070   1.364   2.845
  967SOL    HW1 2987   2.010   1.294   2.822
  967SOL    HW2 2988   2.128   1.326   2.910
  968SOL     OW 2989   0.935   0.883   3.437
  968SOL    HW1 2990   0.931   0.796   3.478
  968SOL    HW2 2991   0.980   0.868   3.354
  969SOL     OW 2992   2.343   1.019   4.631
  969SOL    HW1 2993   2.351   0.977   4.545
  969SOL    HW2 2994   2.253   1.050   4.635
  970SOL     OW 2995   1.642   2.385   3.537
  970SOL    HW1 2996   1.619   2.429   3.619
  970SOL    HW2 2997   1.558   2.375   3.491
  971SOL     OW 2998   0.730   1.101   3.517
  971SOL    HW1 2999   0.786   1.037   3.472
  971SOL    HW2 3000   0.764   1.104   3.606
  972SOL     OW 3001   0.575   2.222   3.547
  972SOL    HW1 3002   0.570   2.270   3.464
  972SOL    HW2 3003   0.491   2.175   3.552
  973SOL     OW 3004   1.153   0.661   4.563
  973SOL    HW1 3005   1.110   0.737   4.601
  973SOL    HW2 3006   1.101   0.640   4.486
  974SOL     OW 3007   0.667   0.569   2.723
  974SOL    HW1 3008   0.671   0.595   2.815
  974SOL    HW2 3009   0.583   0.524   2.714
  975SOL     OW 3010   1.224   2.369   3.834
  975SOL    HW1 3011   1.285   2.419   3.889
  975SOL    HW2 3012   1.163   2.328   3.897
  976SOL     OW 3013   1.658   0.668   4.230
  976SOL    HW1 3014   1.565   0.678   4.253
  976SOL    HW2 3015   1.697   0.626   4.306
  977SOL     OW 3016   1.328   2.146   3.458
  977SOL    HW1 3017   1.390   2.109   3.394
  977SOL    HW2 3018   1.334   2.240   3.445
  978SOL     OW 3019   0.273   2.418   4.745
  978SOL    HW1 3020   0.197   2.412   4.687
  978SOL    HW2 3021   0.298   2.327   4.760
  979SOL     OW 3022   1.045   1.108   3.343
  979SOL    HW1 3023   1.140   1.118   3.338
  979SOL    HW2 3024   1.032   1.034   3.401
  980SOL     OW 3025   2.043   0.879   2.917
  980SOL    HW1 3026   1.958   0.860   2.877
  980SOL    HW2 3027   2.095   0.800   2.900
  981SOL     OW 3028   1.686   1.817   3.712
  981SOL    HW1 3029   1.691   1.722   3.710
  981SOL    HW2 3030   1.596   1.836   3.738
  982SOL     OW 3031   1.808   0.288   3.941
  982SOL    HW1 3032   1.866   0.260   4.012
  982SOL    HW2 3033   1.723   0.301   3.983
  983SOL     OW 3034   1.826   0.837   4.071
  983SOL    HW1 3035   1.805   0.831   3.978
  983SOL    HW2 3036   1.759   0.784   4.114
  984SOL     OW 3037   0.426   0.745   4.866
  984SOL    HW1 3038   0.357   0.776   4.807
  984SOL    HW2 3039   0.403   0.654   4.884
  985SOL     OW 3040   1.008   0.409   3.364
  985SOL    HW1 3041   0.947   0.365   3.423
  985SOL    HW2 3042   0.989   0.372   3.278
  986SOL     OW 3043   0.222   1.063   3.731
  986SOL    HW1 3044   0.192   0.973   3.747
  986SOL    HW2 3045   0.225   1.103   3.818
  987SOL     OW 3046   1.970   2.397   4.120
  987SOL    HW1 3047   2.048   2.416   4.172
  987SOL    HW2 3048   1.901   2.449   4.161
  988SOL     OW 3049   2.237   0.590   3.368
  988SOL    HW1 3050   2.330   0.589   3.345
  988SOL    HW2 3051   2.209   0.680   3.349
  989SOL     OW 3052   2.392   0.352   4.930
  989SOL    HW1 3053   2.418   0.261   4.946
  989SOL    HW2 3054   2.436   0.376   4.848
  990SOL     OW 3055   0.914   0.696   2.771
  990SOL    HW1 3056   0.851   0.769   2.774
  990SOL    HW2 3057   0.878   0.636   2.706
  991SOL     OW 3058   1.795   1.733   4.901
  991SOL    HW1 3059   1.831   1.650   4.932
  991SOL    HW2 3060   1.852   1.758   4.829
  992SOL     OW 3061   2.224   1.117   4.207
  992SOL    HW1 3062   2.282   1.045   4.232
  992SOL    HW2 3063   2.136   1.079   4.212
  993SOL     OW 3064   2.048   0.660   4.624
  993SOL    HW1 3065   2.048   0.597   4.696
  993SOL    HW2 3066   2.116   0.629   4.564
  994SOL     OW 3067   0.691   0.704   4.233
  994SOL    HW1 3068   0.748   0.659   4.296
  994SOL    HW2 3069   0.700   0.797   4.255
  995SOL     OW 3070   1.809   2.211   4.401
  995SOL    HW1 3071   1.898   2.181   4.419
  995SOL    HW2 3072   1.812   2.245   4.312
  996SOL     OW 3073   2.291   0.863   3.319
  996SOL    HW1 3074   2.345   0.842   3.243
  996SOL    HW2 3075   2.201   0.853   3.289
  997SOL     OW 3076   1.732   0.008   4.271
  997SOL    HW1 3077   1.697  -0.034   4.349
  997SOL    HW2 3078   1.660   0.060   4.237
  998SOL     OW 3079   2.361   0.149   3.865
  998SOL    HW1 3080   2.455   0.161   3.874
  998SOL    HW2 3081   2.351   0.072   3.810
  999SOL     OW 3082   1.255   1.886   3.507
  999SOL    HW1 3083   1.312   1.834   3.564
  999SOL    HW2 3084   1.283   1.976   3.521
 1000SOL     OW 3085   2.168   2.006   3.645
 1000SOL    HW1 3086   2.117   2.066   3.700
 1000SOL    HW2 3087   2.102   1.961   3.591
 1001SOL     OW 3088   2.247   0.013   4.705
 1001SOL    HW1 3089   2.320   0.056   4.749
 1001SOL    HW2 3090   2.216  -0.053   4.767
 1002SOL     OW 3091   2.132   0.400   4.818
 1002SOL    HW1 3092   2.214   0.372   4.858
 1002SOL    HW2 3093   2.131   0.356   4.733
 1003SOL     OW 3094   1.111   1.638   3.634
 1003SOL    HW1 3095   1.061   1.717   3.656
 1003SOL    HW2 3096   1.200   1.657   3.665
 1004SOL     OW 3097   1.465   0.608   3.013
 1004SOL    HW1 3098   1.548   0.655   3.009
 1004SOL    HW2 3099   1.440   0.613   3.105
 1005SOL     OW 3100   2.318   1.027   2.667
 1005SOL    HW1 3101   2.391   1.080   2.633
 1005SOL    HW2 3102   2.344   0.937   2.650
 1006SOL     OW 3103   0.359   1.788   2.686
 1006SOL    HW1 3104   0.370   1.729   2.611
 1006SOL    HW2 3105   0.354   1.731   2.762
 1007SOL     OW 3106   0.011   2.203   3.912
 1007SOL    HW1 3107  -0.033   2.121   3.890
 1007SOL    HW2 3108   0.087   2.205   3.854
 1008SOL     OW 3109   2.108   0.450   3.165
 1008SOL    HW1 3110   2.178   0.416   3.111
 1008SOL    HW2 3111   2.152   0.492   3.239
 1009SOL     OW 3112   0.625   1.922   4.160
 1009SOL    HW1 3113   0.597   2.001   4.113
 1009SOL    HW2 3114   0.691   1.953   4.223
 1010SOL     OW 3115   1.095   1.118   4.540
 1010SOL    HW1 3116   1.083   1.125   4.445
 1010SOL    HW2 3117   1.049   1.037   4.564
 1011SOL     OW 3118   0.056   2.156   2.533
 1011SOL    HW1 3119   0.001   2.219   2.579
 1011SOL    HW2 3120   0.137   2.154   2.584
 1012SOL     OW 3121   1.093   1.957   4.647
 1012SOL    HW1 3122   1.086   1.962   4.552
 1012SOL    HW2 3123   1.061   1.870   4.669
 1013SOL     OW 3124   1.336   4.070   0.888
 1013SOL    HW1 3125   1.399   4.040   0.953
 1013SOL    HW2 3126   1.287   4.139   0.933
 1014SOL     OW 3127   2.010   3.801   1.665
 1014SOL    HW1 3128   2.066   3.774   1.592
 1014SOL    HW2 3129   2.058   3.775   1.743
 1015SOL     OW 3130   2.228   3.133   1.662
 1015SOL    HW1 3131   2.158   3.076   1.695
 1015SOL    HW2 3132   2.281   3.075   1.607
 1016SOL     OW 3133   0.645   4.823   0.377
 1016SOL    HW1 3134   0.653   4.914   0.348
 1016SOL    HW2 3135   0.709   4.776   0.324
 1017SOL     OW 3136   1.951   3.789   1.280
 1017SOL    HW1 3137   1.890   3.719   1.301
 1017SOL    HW2 3138   2.021   3.781   1.345
 1018SOL     OW 3139   1.871   4.001   1.527
 1018SOL    HW1 3140   1.920   3.928   1.563
 1018SOL    HW2 3141   1.814   4.030   1.599
 1019SOL     OW 3142   1.433   2.693   2.188
 1019SOL    HW1 3143   1.356   2.741   2.219
 1019SOL    HW2 3144   1.506   2.730   2.238
 1020SOL     OW 3145   0.349   4.721   1.980
 1020SOL    HW1 3146   0.362   4.660   2.053
 1020SOL    HW2 3147   0.292   4.674   1.920
 1021SOL     OW 3148   0.321   4.955   1.836
 1021SOL    HW1 3149   0.227   4.966   1.823
 1021SOL    HW2 3150   0.329   4.871   1.883
 1022SOL     OW 3151   1.799   4.216   1.853
 1022SOL    HW1 3152   1.745   4.188   1.780
 1022SOL    HW2 3153   1.756   4.295   1.886
 1023SOL     OW 3154   1.397   4.162   1.188
 1023SOL    HW1 3155   1.444   4.174   1.271
 1023SOL    HW2 3156   1.411   4.070   1.166
 1024SOL     OW 3157   1.760   4.611   0.610
 1024SOL    HW1 3158   1.803   4.696   0.612
 1024SOL    HW2 3159   1.831   4.548   0.623
 1025SOL     OW 3160   0.387   3.421   0.777
 1025SOL    HW1 3161   0.455   3.472   0.734
 1025SOL    HW2 3162   0.378   3.463   0.863
 1026SOL     OW 3163   1.713   3.210   0.485
 1026SOL    HW1 3164   1.709   3.298   0.522
 1026SOL    HW2 3165   1.727   3.224   0.392
 1027SOL     OW 3166   1.615   2.762   1.119
 1027SOL    HW1 3167   1.632   2.852   1.149
 1027SOL    HW2 3168   1.701   2.731   1.090
 1028SOL     OW 3169   1.889   2.508   1.059
 1028SOL    HW1 3170   1.816   2.461   1.099
 1028SOL    HW2 3171   1.954   2.441   1.041
 1029SOL     OW 3172   1.616   2.509   1.323
 1029SOL    HW1 3173   1.659   2.594   1.333
 1029SOL    HW2 3174   1.543   2.512   1.386
 1030SOL     OW 3175   0.611   4.462   0.152
 1030SOL    HW1 3176   0.519   4.481   0.171
 1030SOL    HW2 3177   0.610   4.371   0.123
 1031SOL     OW 3178   2.330   3.747   0.892
 1031SOL    HW1 3179   2.396   3.684   0.863
 1031SOL    HW2 3180   2.381   3.821   0.924
 1032SOL     OW 3181   1.804   3.739   2.275
 1032SOL    HW1 3182   1.834   3.649   2.288
 1032SOL    HW2 3183   1.876   3.793   2.307
 1033SOL     OW 3184   2.227   3.135   0.400
 1033SOL    HW1 3185   2.240   3.067   0.466
 1033SOL    HW2 3186   2.304   3.128   0.344
 1034SOL     OW 3187   0.703   3.990   0.672
 1034SOL    HW1 3188   0.673   4.027   0.755
 1034SOL    HW2 3189   0.798   3.985   0.681
 1035SOL     OW 3190   0.905   4.867   2.486
 1035SOL    HW1 3191   0.859   4.830   2.411
 1035SOL    HW2 3192   0.897   4.801   2.554
 1036SOL     OW 3193   2.227   4.255   2.162
 1036SOL    HW1 3194   2.274   4.332   2.132
 1036SOL    HW2 3195   2.285   4.182   2.140
 1037SOL     OW 3196   1.982   4.450   0.665
 1037SOL    HW1 3197   2.078   4.452   0.662
 1037SOL    HW2 3198   1.958   4.370   0.619
 1038SOL     OW 3199   0.479   4.242   1.409
 1038SOL    HW1 3200   0.401   4.216   1.360
 1038SOL    HW2 3201   0.445   4.288   1.486
 1039SOL     OW 3202   0.564   3.214   0.778
 1039SOL    HW1 3203   0.617   3.231   0.856
 1039SOL    HW2 3204   0.505   3.289   0.773
 1040SOL     OW 3205   0.930   4.920   1.435
 1040SOL    HW1 3206   0.947   4.858   1.364
 1040SOL    HW2 3207   0.858   4.975   1.403
 1041SOL     OW 3208   0.114   4.320   0.457
 1041SOL    HW1 3209   0.050   4.256   0.426
 1041SOL    HW2 3210   0.198   4.277   0.444
 1042SOL     OW 3211   1.140   4.629   0.741
 1042SOL    HW1 3212   1.110   4.702   0.794
 1042SOL    HW2 3213   1.195   4.577   0.801
 1043SOL     OW 3214   0.134   3.887   0.733
 1043SOL    HW1 3215   0.073   3.927   0.796
 1043SOL    HW2 3216   0.077   3.840   0.672
 1044SOL     OW 3217   1.193   2.897   2.141
 1044SOL    HW1 3218   1.198   2.857   2.055
 1044SOL    HW2 3219   1.202   2.991   2.125
 1045SOL     OW 3220   2.418   2.580   2.428
 1045SOL    HW1 3221   2.360   2.564   2.503
 1045SOL    HW2 3222   2.506   2.562   2.462
 1046SOL     OW 3223   0.981   4.325   0.021
 1046SOL    HW1 3224   1.002   4.253   0.081
 1046SOL    HW2 3225   0.965   4.282  -0.063
 1047SOL     OW 3226   2.025   3.554   2.120
 1047SOL    HW1 3227   1.976   3.543   2.201
 1047SOL    HW2 3228   1.994   3.485   2.063
 1048SOL     OW 3229   2.284   3.907   2.446
 1048SOL    HW1 3230   2.370   3.865   2.441
 1048SOL    HW2 3231   2.300   3.998   2.423
 1049SOL     OW 3232   1.961   3.469   1.791
 1049SOL    HW1 3233   1.924   3.414   1.722
 1049SOL    HW2 3234   1.935   3.426   1.873
 1050SOL     OW 3235   2.269   4.393   0.570
 1050SOL    HW1 3236   2.349   4.427   0.610
 1050SOL    HW2 3237   2.290   4.303   0.545
 1051SOL     OW 3238   1.846   2.795   1.804
 1051SOL    HW1 3239   1.757   2.761   1.801
 1051SOL    HW2 3240   1.883   2.758   1.884
 1052SOL     OW 3241   1.262   4.854   1.878
 1052SOL    HW1 3242   1.200   4.791   1.841
 1052SOL    HW2 3243   1.327   4.801   1.924
 1053SOL     OW 3244   1.773   3.417   1.147
 1053SOL    HW1 3245   1.746   3.497   1.191
 1053SOL    HW2 3246   1.868   3.414   1.160
 1054SOL     OW 3247   1.572   3.248   1.059
 1054SOL    HW1 3248   1.625   3.311   1.109
 1054SOL    HW2 3249   1.508   3.303   1.012
 1055SOL     OW 3250   0.878   3.495   1.880
 1055SOL    HW1 3251   0.819   3.466   1.949
 1055SOL    HW2 3252   0.865   3.590   1.874
 1056SOL     OW 3253   0.348   2.622   2.075
 1056SOL    HW1 3254   0.344   2.565   2.152
 1056SOL    HW2 3255   0.366   2.563   2.002
 1057SOL     OW 3256   1.291   4.006   2.249
 1057SOL    HW1 3257   1.327   3.917   2.240
 1057SOL    HW2 3258   1.343   4.059   2.189
 1058SOL     OW 3259   1.221   4.757   0.337
 1058SOL    HW1 3260   1.184   4.843   0.355
 1058SOL    HW2 3261   1.194   4.737   0.247
 1059SOL     OW 3262   0.825   2.933   0.499
 1059SOL    HW1 3263   0.863   2.941   0.412
 1059SOL    HW2 3264   0.781   3.016   0.514
 1060SOL     OW 3265   0.436   3.937   0.582
 1060SOL    HW1 3266   0.514   3.951   0.635
 1060SOL    HW2 3267   0.407   3.848   0.604
 1061SOL     OW 3268   2.455   2.673   0.710
 1061SOL    HW1 3269   2.471   2.587   0.671
 1061SOL    HW2 3270   2.537   2.721   0.696
 1062SOL     OW 3271   1.508   4.515   0.802
 1062SOL    HW1 3272   1.536   4.426   0.825
 1062SOL    HW2 3273   1.585   4.555   0.762
 1063SOL     OW 3274   0.266   3.645   0.563
 1063SOL    HW1 3275   0.180   3.673   0.531
 1063SOL    HW2 3276   0.277   3.556   0.529
 1064SOL     OW 3277   1.937   3.998   0.098
 1064SOL    HW1 3278   1.931   3.942   0.175
 1064SOL    HW2 3279   1.974   3.942   0.030
 1065SOL     OW 3280   0.857   4.398   0.346
 1065SOL    HW1 3281   0.923   4.358   0.290
 1065SOL    HW2 3282   0.907   4.451   0.409
 1066SOL     OW 3283   0.365   4.812   0.286
 1066SOL    HW1 3284   0.447   4.763   0.291
 1066SOL    HW2 3285   0.348   4.819   0.192
 1067SOL     OW 3286   2.151   4.099   0.380
 1067SOL    HW1 3287   2.116   4.011   0.362
 1067SOL    HW2 3288   2.235   4.101   0.335
 1068SOL     OW 3289   1.553   3.476   1.908
 1068SOL    HW1 3290   1.637   3.517   1.924
 1068SOL    HW2 3291   1.555   3.396   1.962
 1069SOL     OW 3292   0.063   2.976   1.792
 1069SOL    HW1 3293   0.079   2.949   1.702
 1069SOL    HW2 3294  -0.022   2.938   1.814
 1070SOL     OW 3295   1.448   2.654   1.926
 1070SOL    HW1 3296   1.451   2.661   2.022
 1070SOL    HW2 3297   1.373   2.597   1.909
 1071SOL     OW 3298   1.277   3.930   0.527
 1071SOL    HW1 3299   1.235   3.927   0.613
 1071SOL    HW2 3300   1.339   4.003   0.533
 1072SOL     OW 3301   1.910   2.930   0.494
 1072SOL    HW1 3302   1.842   2.923   0.561
 1072SOL    HW2 3303   1.992   2.926   0.543
 1073SOL     OW 3304   1.841   4.187   2.133
 1073SOL    HW1 3305   1.898   4.119   2.166
 1073SOL    HW2 3306   1.845   4.179   2.038
 1074SOL     OW 3307   0.165   4.262   1.991
 1074SOL    HW1 3308   0.088   4.293   2.038
 1074SOL    HW2 3309   0.202   4.341   1.951
 1075SOL     OW 3310   0.858   3.910   2.194
 1075SOL    HW1 3311   0.835   3.961   2.117
 1075SOL    HW2 3312   0.813   3.827   2.182
 1076SOL     OW 3313   2.262   3.481   1.069
 1076SOL    HW1 3314   2.250   3.448   0.980
 1076SOL    HW2 3315   2.343   3.533   1.065
 1077SOL     OW 3316   0.637   4.083   0.211
 1077SOL    HW1 3317   0.610   4.119   0.296
 1077SOL    HW2 3318   0.732   4.087   0.212
 1078SOL     OW 3319   2.393   3.390   1.801
 1078SOL    HW1 3320   2.414   3.352   1.716
 1078SOL    HW2 3321   2.379   3.315   1.859
 1079SOL     OW 3322   2.029   3.352   0.742
 1079SOL    HW1 3323   1.951   3.299   0.761
 1079SOL    HW2 3324   2.024   3.369   0.648
 1080SOL     OW 3325   1.075   2.593   1.158
 1080SOL    HW1 3326   1.159   2.605   1.114
 1080SOL    HW2 3327   1.088   2.520   1.217
 1081SOL     OW 3328   1.651   2.651   0.600
 1081SOL    HW1 3329   1.660   2.587   0.671
 1081SOL    HW2 3330   1.718   2.625   0.536
 1082SOL     OW 3331   0.032   4.485   0.632
 1082SOL    HW1 3332   0.062   4.438   0.555
 1082SOL    HW2 3333   0.107   4.484   0.692
 1083SOL     OW 3334   0.935   4.915   0.579
 1083SOL    HW1 3335   0.961   4.931   0.488
 1083SOL    HW2 3336   1.015   4.928   0.629
 1084SOL     OW 3337   1.207   3.940   0.022
 1084SOL    HW1 3338   1.179   3.856  -0.014
 1084SOL    HW2 3339   1.244   3.987  -0.052
 1085SOL     OW 3340   1.788   3.636   1.964
 1085SOL    HW1 3341   1.728   3.699   2.006
 1085SOL    HW2 3342   1.874   3.678   1.970
 1086SOL     OW 3343   1.649   3.807   0.029
 1086SOL    HW1 3344   1.583   3.741   0.009
 1086SOL    HW2 3345   1.676   3.841  -0.056
 1087SOL     OW 3346   0.553   2.980   1.647
 1087SOL    HW1 3347   0.567   3.069   1.681
 1087SOL    HW2 3348   0.597   2.923   1.710
 1088SOL     OW 3349   1.282   2.786   0.888
 1088SOL    HW1 3350   1.300   2.762   0.797
 1088SOL    HW2 3351   1.207   2.845   0.883
 1089SOL     OW 3352   0.414   4.315   1.841
 1089SOL    HW1 3353   0.501   4.325   1.803
 1089SOL    HW2 3354   0.426   4.251   1.911
 1090SOL     OW 3355   0.246   2.736   1.749
 1090SOL    HW1 3356   0.271   2.729   1.842
 1090SOL    HW2 3357   0.254   2.829   1.729
 1091SOL     OW 3358   0.556   3.992   1.553
 1091SOL    HW1 3359   0.525   4.063   1.498
 1091SOL    HW2 3360   0.623   4.031   1.608
 1092SOL     OW 3361   0.649   2.823   1.854
 1092SOL    HW1 3362   0.606   2.822   1.940
 1092SOL    HW2 3363   0.646   2.732   1.825
 1093SOL     OW 3364   1.730   3.004   1.988
 1093SOL    HW1 3365   1.726   2.976   2.079
 1093SOL    HW2 3366   1.787   2.940   1.945
 1094SOL     OW 3367   0.372   3.612   1.919
 1094SOL    HW1 3368   0.314   3.577   1.851
 1094SOL    HW2 3369   0.441   3.546   1.927
 1095SOL     OW 3370   1.060   4.276   1.646
 1095SOL    HW1 3371   1.081   4.326   1.567
 1095SOL    HW2 3372   1.058   4.185   1.617
 1096SOL     OW 3373   1.663   4.905   2.070
 1096SOL    HW1 3374   1.586   4.888   2.124
 1096SOL    HW2 3375   1.708   4.821   2.066
 1097SOL     OW 3376   0.488   2.764   1.487
 1097SOL    HW1 3377   0.509   2.706   1.559
 1097SOL    HW2 3378   0.510   2.852   1.519
 1098SOL     OW 3379   0.849   4.426   1.846
 1098SOL    HW1 3380   0.842   4.348   1.901
 1098SOL    HW2 3381   0.881   4.394   1.762
 1099SOL     OW 3382   1.418   4.953   1.508
 1099SOL    HW1 3383   1.409   5.033   1.560
 1099SOL    HW2 3384   1.397   4.882   1.569
 1100SOL     OW 3385   0.743   3.090   1.434
 1100SOL    HW1 3386   0.724   3.169   1.384
 1100SOL    HW2 3387   0.669   3.082   1.496
 1101SOL     OW 3388   2.058   4.603   2.066
 1101SOL    HW1 3389   2.043   4.542   2.138
 1101SOL    HW2 3390   2.093   4.549   1.995
 1102SOL     OW 3391   0.840   4.730   0.764
 1102SOL    HW1 3392   0.877   4.756   0.679
 1102SOL    HW2 3393   0.751   4.764   0.763
 1103SOL     OW 3394   2.366   3.217   1.996
 1103SOL    HW1 3395   2.453   3.180   2.010
 1103SOL    HW2 3396   2.315   3.146   1.957
 1104SOL     OW 3397   1.873   4.675   1.484
 1104SOL    HW1 3398   1.895   4.599   1.537
 1104SOL    HW2 3399   1.899   4.750   1.538
 1105SOL     OW 3400   0.629   2.744   0.520
 1105SOL    HW1 3401   0.706   2.799   0.529
 1105SOL    HW2 3402   0.611   2.713   0.608
 1106SOL     OW 3403   0.068   2.906   2.190
 1106SOL    HW1 3404   0.061   2.821   2.148
 1106SOL    HW2 3405   0.094   2.966   2.119
 1107SOL     OW 3406   1.062   4.971   0.336
 1107SOL    HW1 3407   1.112   5.052   0.337
 1107SOL    HW2 3408   1.022   4.969   0.249
 1108SOL     OW 3409   2.344   2.989   0.165
 1108SOL    HW1 3410   2.377   2.944   0.088
 1108SOL    HW2 3411   2.377   2.938   0.239
 1109SOL     OW 3412   1.597   2.850   2.453
 1109SOL    HW1 3413   1.663   2.795   2.496
 1109SOL    HW2 3414   1.592   2.928   2.507
 1110SOL     OW 3415   2.219   4.666   0.481
 1110SOL    HW1 3416   2.303   4.671   0.436
 1110SOL    HW2 3417   2.214   4.576   0.513
 1111SOL     OW 3418   1.398   3.745   1.901
 1111SOL    HW1 3419   1.435   3.794   1.974
 1111SOL    HW2 3420   1.415   3.653   1.923
 1112SOL     OW 3421   2.340   3.184   1.365
 1112SOL    HW1 3422   2.375   3.097   1.348
 1112SOL    HW2 3423   2.257   3.187   1.318
 1113SOL     OW 3424   1.332   2.563   0.187
 1113SOL    HW1 3425   1.364   2.569   0.276
 1113SOL    HW2 3426   1.389   2.498   0.145
 1114SOL     OW 3427   0.609   3.505   1.760
 1114SOL    HW1 3428   0.671   3.552   1.704
 1114SOL    HW2 3429   0.524   3.518   1.717
 1115SOL     OW 3430   2.050   4.419   2.295
 1115SOL    HW1 3431   2.034   4.427   2.389
 1115SOL    HW2 3432   2.098   4.337   2.285
 1116SOL     OW 3433   1.621   3.736   0.363
 1116SOL    HW1 3434   1.538   3.779   0.343
 1116SOL    HW2 3435   1.684   3.776   0.303
 1117SOL     OW 3436   0.426   3.042   1.943
 1117SOL    HW1 3437   0.428   3.023   1.849
 1117SOL    HW2 3438   0.456   2.961   1.985
 1118SOL     OW 3439   2.101   3.328   1.537
 1118SOL    HW1 3440   2.009   3.326   1.562
 1118SOL    HW2 3441   2.143   3.263   1.594
 1119SOL     OW 3442   1.111   3.596   1.460
 1119SOL    HW1 3443   1.190   3.648   1.475
 1119SOL    HW2 3444   1.133   3.509   1.493
 1120SOL     OW 3445   2.333   3.787   1.238
 1120SOL    HW1 3446   2.424   3.805   1.217
 1120SOL    HW2 3447   2.286   3.867   1.216
 1121SOL     OW 3448   2.442   4.140   1.452
 1121SOL    HW1 3449   2.373   4.132   1.386
 1121SOL    HW2 3450   2.394   4.163   1.532
 1122SOL     OW 3451   2.085   4.220   1.850
 1122SOL    HW1 3452   2.112   4.158   1.917
 1122SOL    HW2 3453   1.989   4.213   1.847
 1123SOL     OW 3454   0.902   3.992   0.032
 1123SOL    HW1 3455   0.942   3.913   0.069
 1123SOL    HW2 3456   0.959   4.014  -0.042
 1124SOL     OW 3457   1.927   2.758   1.156
 1124SOL    HW1 3458   1.910   2.777   1.249
 1124SOL    HW2 3459   1.931   2.662   1.152
 1125SOL     OW 3460   1.932   4.349   0.996
 1125SOL    HW1 3461   1.904   4.376   0.909
 1125SOL    HW2 3462   1.900   4.260   1.006
 1126SOL     OW 3463   0.614   2.847   1.137
 1126SOL    HW1 3464   0.576   2.759   1.135
 1126SOL    HW2 3465   0.541   2.904   1.160
 1127SOL     OW 3466   0.178   4.689   1.197
 1127SOL    HW1 3467   0.112   4.712   1.132
 1127SOL    HW2 3468   0.235   4.626   1.154
 1128SOL     OW 3469   0.511   2.960   0.728
 1128SOL    HW1 3470   0.587   2.902   0.726
 1128SOL    HW2 3471   0.539   3.034   0.781
 1129SOL     OW 3472   1.434   3.653   2.379
 1129SOL    HW1 3473   1.379   3.596   2.433
 1129SOL    HW2 3474   1.512   3.600   2.360
 1130SOL     OW 3475   2.417   4.668   1.714
 1130SOL    HW1 3476   2.323   4.679   1.706
 1130SOL    HW2 3477   2.452   4.687   1.627
 1131SOL     OW 3478   1.038   3.654   0.021
 1131SOL    HW1 3479   1.049   3.644  -0.074
 1131SOL    HW2 3480   0.946   3.633   0.037
 1132SOL     OW 3481   2.061   3.354   1.205
 1132SOL    HW1 3482   2.130   3.407   1.165
 1132SOL    HW2 3483   2.086   3.349   1.298
 1133SOL     OW 3484   2.373   4.803   0.215
 1133SOL    HW1 3485   2.320   4.867   0.263
 1133SOL    HW2 3486   2.439   4.774   0.277
 1134SOL     OW 3487   1.723   2.509   0.003
 1134SOL    HW1 3488   1.631   2.486  -0.002
 1134SOL    HW2 3489   1.755   2.463   0.081
 1135SOL     OW 3490   1.756   2.735   0.152
 1135SOL    HW1 3491   1.820   2.757   0.220
 1135SOL    HW2 3492   1.779   2.647   0.124
 1136SOL     OW 3493   1.945   4.227   0.266
 1136SOL    HW1 3494   2.013   4.188   0.322
 1136SOL    HW2 3495   1.916   4.155   0.210
 1137SOL     OW 3496   0.601   4.779   1.343
 1137SOL    HW1 3497   0.627   4.766   1.251
 1137SOL    HW2 3498   0.513   4.817   1.337
 1138SOL     OW 3499   1.174   3.100   0.856
 1138SOL    HW1 3500   1.152   3.133   0.769
 1138SOL    HW2 3501   1.119   3.022   0.867
 1139SOL     OW 3502   0.339   4.077   0.020
 1139SOL    HW1 3503   0.248   4.098  -0.002
 1139SOL    HW2 3504   0.377   4.046  -0.062
 1140SOL     OW 3505   1.319   3.394   1.401
 1140SOL    HW1 3506   1.366   3.323   1.445
 1140SOL    HW2 3507   1.368   3.473   1.425
 1141SOL     OW 3508   2.077   2.955   0.103
 1141SOL    HW1 3509   2.089   2.939   0.009
 1141SOL    HW2 3510   2.160   2.993   0.131
 1142SOL     OW 3511   0.589   3.455   2.390
 1142SOL    HW1 3512   0.500   3.489   2.377
 1142SOL    HW2 3513   0.578   3.361   2.402
 1143SOL     OW 3514   0.088   3.888   1.457
 1143SOL    HW1 3515   0.022   3.867   1.523
 1143SOL    HW2 3516   0.063   3.975   1.425
 1144SOL     OW 3517   1.977   4.654   2.478
 1144SOL    HW1 3518   1.907   4.648   2.543
 1144SOL    HW2 3519   1.958   4.582   2.417
 1145SOL     OW 3520   0.052   4.712   0.404
 1145SOL    HW1 3521   0.147   4.721   0.407
 1145SOL    HW2 3522   0.030   4.665   0.485
 1146SOL     OW 3523   0.309   3.206   1.686
 1146SOL    HW1 3524   0.216   3.189   1.673
 1146SOL    HW2 3525   0.349   3.187   1.601
 1147SOL     OW 3526   2.010   2.969   1.394
 1147SOL    HW1 3527   2.019   2.963   1.299
 1147SOL    HW2 3528   1.960   2.891   1.418
 1148SOL     OW 3529   0.016   3.077   0.431
 1148SOL    HW1 3530   0.063   3.005   0.473
 1148SOL    HW2 3531   0.078   3.112   0.367
 1149SOL     OW 3532   0.053   3.372   0.987
 1149SOL    HW1 3533  -0.025   3.323   0.960
 1149SOL    HW2 3534   0.047   3.454   0.938
 1150SOL     OW 3535   2.055   3.487   0.098
 1150SOL    HW1 3536   2.139   3.490   0.143
 1150SOL    HW2 3537   2.006   3.417   0.141
 1151SOL     OW 3538   0.505   3.507   0.358
 1151SOL    HW1 3539   0.462   3.590   0.336
 1151SOL    HW2 3540   0.450   3.440   0.317
 1152SOL     OW 3541   1.050   3.366   1.693
 1152SOL    HW1 3542   1.130   3.419   1.699
 1152SOL    HW2 3543   0.988   3.410   1.750
 1153SOL     OW 3544   0.341   3.473   1.663
 1153SOL    HW1 3545   0.268   3.520   1.624
 1153SOL    HW2 3546   0.347   3.392   1.613
 1154SOL     OW 3547   1.475   4.623   1.601
 1154SOL    HW1 3548   1.390   4.607   1.561
 1154SOL    HW2 3549   1.533   4.640   1.527
 1155SOL     OW 3550   0.152   2.585   1.400
 1155SOL    HW1 3551   0.165   2.580   1.305
 1155SOL    HW2 3552   0.228   2.633   1.432
 1156SOL     OW 3553   0.051   4.884   2.116
 1156SOL    HW1 3554   0.005   4.820   2.171
 1156SOL    HW2 3555   0.025   4.863   2.027
 1157SOL     OW 3556   2.417   4.681   2.272
 1157SOL    HW1 3557   2.327   4.709   2.288
 1157SOL    HW2 3558   2.456   4.672   2.359
 1158SOL     OW 3559   0.269   3.355   2.171
 1158SOL    HW1 3560   0.294   3.447   2.186
 1158SOL    HW2 3561   0.293   3.338   2.080
 1159SOL     OW 3562   1.677   3.877   0.610
 1159SOL    HW1 3563   1.694   3.834   0.526
 1159SOL    HW2 3564   1.691   3.970   0.593
 1160SOL     OW 3565   0.976   3.801   1.594
 1160SOL    HW1 3566   1.033   3.837   1.661
 1160SOL    HW2 3567   1.017   3.719   1.568
 1161SOL     OW 3568   0.847   2.726   1.015
 1161SOL    HW1 3569   0.904   2.687   1.081
 1161SOL    HW2 3570   0.767   2.749   1.063
 1162SOL     OW 3571   2.041   3.995   2.237
 1162SOL    HW1 3572   2.075   3.919   2.285
 1162SOL    HW2 3573   2.108   4.013   2.171
 1163SOL     OW 3574   0.631   4.156   2.431
 1163SOL    HW1 3575   0.586   4.172   2.514
 1163SOL    HW2 3576   0.701   4.096   2.453
 1164SOL     OW 3577   2.327   3.476   1.476
 1164SOL    HW1 3578   2.248   3.444   1.520
 1164SOL    HW2 3579   2.338   3.418   1.401
 1165SOL     OW 3580   1.479   4.844   0.022
 1165SOL    HW1 3581   1.457   4.852  -0.071
 1165SOL    HW2 3582   1.398   4.816   0.064
 1166SOL     OW 3583   2.085   3.758   1.946
 1166SOL    HW1 3584   2.133   3.693   1.895
 1166SOL    HW2 3585   2.065   3.714   2.029
 1167SOL     OW 3586   0.022   3.337   2.336
 1167SOL    HW1 3587   0.093   3.282   2.303
 1167SOL    HW2 3588  -0.036   3.348   2.261
 1168SOL     OW 3589   0.695   3.168   1.021
 1168SOL    HW1 3590   0.752   3.092   1.008
 1168SOL    HW2 3591   0.721   3.204   1.106
 1169SOL     OW 3592   0.075   3.704   0.072
 1169SOL    HW1 3593   0.052   3.691  -0.020
 1169SOL    HW2 3594   0.163   3.741   0.070
 1170SOL     OW 3595   2.192   3.006   1.961
 1170SOL    HW1 3596   2.152   3.000   1.874
 1170SOL    HW2 3597   2.177   2.920   2.000
 1171SOL     OW 3598   1.032   3.010   2.471
 1171SOL    HW1 3599   1.125   3.030   2.479
 1171SOL    HW2 3600   1.029   2.928   2.423
 1172SOL     OW 3601   2.168   4.463   1.856
 1172SOL    HW1 3602   2.134   4.374   1.856
 1172SOL    HW2 3603   2.214   4.472   1.772
 1173SOL     OW 3604   0.017   2.669   2.057
 1173SOL    HW1 3605   0.031   2.581   2.093
 1173SOL    HW2 3606   0.005   2.655   1.963
 1174SOL     OW 3607   2.225   3.904   0.651
 1174SOL    HW1 3608   2.252   3.871   0.737
 1174SOL    HW2 3609   2.135   3.935   0.664
 1175SOL     OW 3610   0.774   4.163   1.629
 1175SOL    HW1 3611   0.838   4.158   1.700
 1175SOL    HW2 3612   0.731   4.248   1.641
 1176SOL     OW 3613   1.611   4.680   1.347
 1176SOL    HW1 3614   1.627   4.768   1.314
 1176SOL    HW2 3615   1.696   4.651   1.382
 1177SOL     OW 3616   0.666   3.186   0.521
 1177SOL    HW1 3617   0.716   3.267   0.525
 1177SOL    HW2 3618   0.645   3.166   0.612
 1178SOL     OW 3619   2.206   4.939   0.419
 1178SOL    HW1 3620   2.149   4.996   0.470
 1178SOL    HW2 3621   2.165   4.853   0.425
 1179SOL     OW 3622   0.127   2.490   0.281
 1179SOL    HW1 3623   0.124   2.497   0.185
 1179SOL    HW2 3624   0.215   2.455   0.299
 1180SOL     OW 3625   0.267   3.216   0.976
 1180SOL    HW1 3626   0.194   3.278   0.982
 1180SOL    HW2 3627   0.321   3.249   0.904
 1181SOL     OW 3628   1.116   2.822   0.389
 1181SOL    HW1 3629   1.192   2.826   0.332
 1181SOL    HW2 3630   1.041   2.819   0.329
 1182SOL     OW 3631   2.397   4.221   0.876
 1182SOL    HW1 3632   2.396   4.207   0.781
 1182SOL    HW2 3633   2.355   4.307   0.887
 1183SOL     OW 3634   0.366   4.532   1.105
 1183SOL    HW1 3635   0.415   4.459   1.066
 1183SOL    HW2 3636   0.372   4.516   1.199
 1184SOL     OW 3637   2.476   3.245   0.648
 1184SOL    HW1 3638   2.503   3.329   0.610
 1184SOL    HW2 3639   2.498   3.180   0.581
 1185SOL     OW 3640   0.338   4.597   2.228
 1185SOL    HW1 3641   0.275   4.536   2.267
 1185SOL    HW2 3642   0.416   4.589   2.283
 1186SOL     OW 3643   0.102   3.605   1.486
 1186SOL    HW1 3644   0.108   3.697   1.460
 1186SOL    HW2 3645   0.009   3.586   1.486
 1187SOL     OW 3646   0.826   4.634   2.310
 1187SOL    HW1 3647   0.889   4.570   2.344
 1187SOL    HW2 3648   0.841   4.634   2.215
 1188SOL     OW 3649   0.671   4.429   1.255
 1188SOL    HW1 3650   0.594   4.380   1.284
 1188SOL    HW2 3651   0.673   4.506   1.312
 1189SOL     OW 3652   0.120   2.958   1.062
 1189SOL    HW1 3653   0.091   3.000   0.982
 1189SOL    HW2 3654   0.041   2.945   1.113
 1190SOL     OW 3655   0.667   3.463   2.068
 1190SOL    HW1 3656   0.693   3.386   2.117
 1190SOL    HW2 3657   0.599   3.432   2.008
 1191SOL     OW 3658   0.079   4.703   0.934
 1191SOL    HW1 3659   0.007   4.656   0.892
 1191SOL    HW2 3660   0.158   4.674   0.888
 1192SOL     OW 3661   1.481   3.589   1.261
 1192SOL    HW1 3662   1.458   3.509   1.215
 1192SOL    HW2 3663   1.399   3.639   1.264
 1193SOL     OW 3664   0.448   3.777   0.340
 1193SOL    HW1 3665   0.539   3.782   0.368
 1193SOL    HW2 3666   0.408   3.857   0.376
 1194SOL     OW 3667   2.392   4.133   0.614
 1194SOL    HW1 3668   2.473   4.090   0.587
 1194SOL    HW2 3669   2.329   4.061   0.625
 1195SOL     OW 3670   1.915   3.489   2.360
 1195SOL    HW1 3671   1.982   3.483   2.428
 1195SOL    HW2 3672   1.892   3.398   2.340
 1196SOL     OW 3673   1.071   4.657   1.782
 1196SOL    HW1 3674   1.028   4.743   1.783
 1196SOL    HW2 3675   1.002   4.596   1.806
 1197SOL     OW 3676   1.412   3.068   1.848
 1197SOL    HW1 3677   1.363   2.993   1.815
 1197SOL    HW2 3678   1.364   3.097   1.925
 1198SOL     OW 3679   1.804   3.220   0.776
 1198SOL    HW1 3680   1.747   3.235   0.852
 1198SOL    HW2 3681   1.770   3.140   0.737
 1199SOL     OW 3682   0.369   3.622   2.348
 1199SOL    HW1 3683   0.296   3.657   2.297
 1199SOL    HW2 3684   0.363   3.667   2.432
 1200SOL     OW 3685   0.042   2.598   1.649
 1200SOL    HW1 3686   0.114   2.656   1.671
 1200SOL    HW2 3687   0.058   2.573   1.558
 1201SOL     OW 3688   0.930   3.117   1.153
 1201SOL    HW1 3689   0.931   3.175   1.229
 1201SOL    HW2 3690   1.016   3.074   1.155
 1202SOL     OW 3691   0.775   3.151   2.474
 1202SOL    HW1 3692   0.715   3.118   2.542
 1202SOL    HW2 3693   0.849   3.091   2.477
 1203SOL     OW 3694   0.559   2.899   2.445
 1203SOL    HW1 3695   0.497   2.957   2.489
 1203SOL    HW2 3696   0.515   2.875   2.364
 1204SOL     OW 3697   0.627   4.951   1.561
 1204SOL    HW1 3698   0.658   5.009   1.492
 1204SOL    HW2 3699   0.627   4.864   1.521
 1205SOL     OW 3700   1.306   3.726   0.894
 1205SOL    HW1 3701   1.398   3.741   0.871
 1205SOL    HW2 3702   1.257   3.763   0.820
 1206SOL     OW 3703   1.288   4.252   0.444
 1206SOL    HW1 3704   1.306   4.339   0.410
 1206SOL    HW2 3705   1.206   4.226   0.402
 1207SOL     OW 3706   1.525   3.463   1.635
 1207SOL    HW1 3707   1.546   3.460   1.728
 1207SOL    HW2 3708   1.534   3.372   1.605
 1208SOL     OW 3709   0.241   3.843   1.761
 1208SOL    HW1 3710   0.207   3.756   1.781
 1208SOL    HW2 3711   0.184   3.875   1.691
 1209SOL     OW 3712   1.047   4.039   1.474
 1209SOL    HW1 3713   1.009   3.951   1.465
 1209SOL    HW2 3714   0.986   4.096   1.427
 1210SOL     OW 3715   1.464   4.182   0.631
 1210SOL    HW1 3716   1.413   4.205   0.553
 1210SOL    HW2 3717   1.398   4.152   0.693
 1211SOL     OW 3718   0.797   2.670   2.234
 1211SOL    HW1 3719   0.809   2.610   2.161
 1211SOL    HW2 3720   0.884   2.705   2.251
 1212SOL     OW 3721   1.685   4.458   1.908
 1212SOL    HW1 3722   1.701   4.552   1.921
 1212SOL    HW2 3723   1.638   4.431   1.987
 1213SOL     OW 3724   1.564   3.756   0.843
 1213SOL    HW1 3725   1.637   3.749   0.905
 1213SOL    HW2 3726   1.601   3.804   0.768
 1214SOL     OW 3727   0.639   4.253   0.443
 1214SOL    HW1 3728   0.704   4.311   0.403
 1214SOL    HW2 3729   0.659   4.255   0.537
 1215SOL     OW 3730   1.892   3.340   2.007
 1215SOL    HW1 3731   1.809   3.301   2.035
 1215SOL    HW2 3732   1.959   3.282   2.043
 1216SOL     OW 3733   0.603   3.553   0.630
 1216SOL    HW1 3734   0.576   3.538   0.540
 1216SOL    HW2 3735   0.698   3.542   0.629
 1217SOL     OW 3736   0.781   4.691   2.029
 1217SOL    HW1 3737   0.769   4.607   1.985
 1217SOL    HW2 3738   0.697   4.709   2.070
 1218SOL     OW 3739   1.137   4.758   0.094
 1218SOL    HW1 3740   1.145   4.679   0.041
 1218SOL    HW2 3741   1.078   4.815   0.044
 1219SOL     OW 3742   0.417   3.190   0.434
 1219SOL    HW1 3743   0.499   3.187   0.485
 1219SOL    HW2 3744   0.445   3.211   0.345
 1220SOL     OW 3745   0.990   4.605   0.471
 1220SOL    HW1 3746   1.020   4.593   0.561
 1220SOL    HW2 3747   1.044   4.677   0.438
 1221SOL     OW 3748   2.263   2.606   0.930
 1221SOL    HW1 3749   2.228   2.692   0.953
 1221SOL    HW2 3750   2.334   2.624   0.868
 1222SOL     OW 3751   0.682   2.587   0.295
 1222SOL    HW1 3752   0.725   2.622   0.218
 1222SOL    HW2 3753   0.671   2.662   0.353
 1223SOL     OW 3754   0.680   4.034   1.953
 1223SOL    HW1 3755   0.633   3.951   1.944
 1223SOL    HW2 3756   0.636   4.079   2.025
 1224SOL     OW 3757   2.403   3.262   0.101
 1224SOL    HW1 3758   2.389   3.170   0.082
 1224SOL    HW2 3759   2.437   3.299   0.019
 1225SOL     OW 3760   1.846   2.577   0.436
 1225SOL    HW1 3761   1.901   2.498   0.438
 1225SOL    HW2 3762   1.902   2.644   0.398
 1226SOL     OW 3763   1.712   4.913   0.781
 1226SOL    HW1 3764   1.773   4.978   0.815
 1226SOL    HW2 3765   1.689   4.860   0.858
 1227SOL     OW 3766   1.742   2.960   2.243
 1227SOL    HW1 3767   1.803   2.887   2.253
 1227SOL    HW2 3768   1.662   2.930   2.286
 1228SOL     OW 3769   0.016   3.040   0.823
 1228SOL    HW1 3770   0.046   3.112   0.768
 1228SOL    HW2 3771   0.031   2.961   0.770
 1229SOL     OW 3772   1.756   4.175   0.537
 1229SOL    HW1 3773   1.745   4.225   0.456
 1229SOL    HW2 3774   1.676   4.193   0.587
 1230SOL     OW 3775   2.250   2.626   0.168
 1230SOL    HW1 3776   2.319   2.651   0.229
 1230SOL    HW2 3777   2.183   2.586   0.223
 1231SOL     OW 3778   1.407   3.176   1.555
 1231SOL    HW1 3779   1.381   3.108   1.616
 1231SOL    HW2 3780   1.405   3.134   1.469
 1232SOL     OW 3781   1.390   4.214   1.713
 1232SOL    HW1 3782   1.404   4.301   1.752
 1232SOL    HW2 3783   1.337   4.232   1.635
 1233SOL     OW 3784   1.886   2.686   0.812
 1233SOL    HW1 3785   1.842   2.771   0.822
 1233SOL    HW2 3786   1.907   2.659   0.901
 1234SOL     OW 3787   2.079   3.611   0.844
 1234SOL    HW1 3788   2.060   3.519   0.828
 1234SOL    HW2 3789   2.173   3.619   0.833
 1235SOL     OW 3790   0.129   2.976   1.551
 1235SOL    HW1 3791   0.190   3.031   1.503
 1235SOL    HW2 3792   0.097   2.912   1.487
 1236SOL     OW 3793   0.625   4.096   0.902
 1236SOL    HW1 3794   0.689   4.151   0.947
 1236SOL    HW2 3795   0.606   4.025   0.964
 1237SOL     OW 3796   1.403   3.055   1.303
 1237SOL    HW1 3797   1.485   3.054   1.253
 1237SOL    HW2 3798   1.334   3.044   1.237
 1238SOL     OW 3799   1.107   4.135   0.197
 1238SOL    HW1 3800   1.135   4.059   0.147
 1238SOL    HW2 3801   1.047   4.100   0.263
 1239SOL     OW 3802   0.205   3.728   2.116
 1239SOL    HW1 3803   0.259   3.795   2.158
 1239SOL    HW2 3804   0.245   3.717   2.029
 1240SOL     OW 3805   1.711   4.760   0.169
 1240SOL    HW1 3806   1.757   4.683   0.204
 1240SOL    HW2 3807   1.629   4.726   0.135
 1241SOL     OW 3808   0.731   2.634   1.332
 1241SOL    HW1 3809   0.717   2.722   1.367
 1241SOL    HW2 3810   0.660   2.621   1.269
 1242SOL     OW 3811   1.413   2.878   0.363
 1242SOL    HW1 3812   1.437   2.958   0.408
 1242SOL    HW2 3813   1.478   2.869   0.293
 1243SOL     OW 3814   0.050   4.879   1.830
 1243SOL    HW1 3815   0.023   4.944   1.765
 1243SOL    HW2 3816   0.010   4.797   1.801
 1244SOL     OW 3817   1.374   3.661   1.556
 1244SOL    HW1 3818   1.445   3.600   1.576
 1244SOL    HW2 3819   1.417   3.735   1.514
 1245SOL     OW 3820   2.036   4.215   1.506
 1245SOL    HW1 3821   1.984   4.135   1.500
 1245SOL    HW2 3822   2.015   4.264   1.427
 1246SOL     OW 3823   1.036   4.148   2.267
 1246SOL    HW1 3824   1.006   4.070   2.219
 1246SOL    HW2 3825   1.129   4.154   2.248
 1247SOL     OW 3826   1.655   3.047   1.199
 1247SOL    HW1 3827   1.735   3.072   1.245
 1247SOL    HW2 3828   1.627   3.125   1.153
 1248SOL     OW 3829   1.613   3.349   0.143
 1248SOL    HW1 3830   1.586   3.390   0.061
 1248SOL    HW2 3831   1.587   3.411   0.211
 1249SOL     OW 3832   0.681   4.384   0.744
 1249SOL    HW1 3833   0.776   4.378   0.740
 1249SOL    HW2 3834   0.658   4.450   0.679
 1250SOL     OW 3835   1.392   4.876   0.870
 1250SOL    HW1 3836   1.300   4.901   0.873
 1250SOL    HW2 3837   1.421   4.902   0.783
 1251SOL     OW 3838   0.554   4.884   2.042
 1251SOL    HW1 3839   0.572   4.931   1.960
 1251SOL    HW2 3840   0.477   4.831   2.024
 1252SOL     OW 3841   2.316   4.814   0.704
 1252SOL    HW1 3842   2.280   4.841   0.620
 1252SOL    HW2 3843   2.244   4.768   0.747
 1253SOL     OW 3844   2.261   4.130   1.665
 1253SOL    HW1 3845   2.201   4.162   1.597
 1253SOL    HW2 3846   2.222   4.160   1.747
 1254SOL     OW 3847   0.018   4.319   1.125
 1254SOL    HW1 3848  -0.017   4.349   1.041
 1254SOL    HW2 3849   0.087   4.258   1.102
 1255SOL     OW 3850   1.474   4.449   1.272
 1255SOL    HW1 3851   1.536   4.518   1.295
 1255SOL    HW2 3852   1.389   4.492   1.273
 1256SOL     OW 3853   0.730   2.717   0.048
 1256SOL    HW1 3854   0.652   2.771   0.033
 1256SOL    HW2 3855   0.761   2.695  -0.040
 1257SOL     OW 3856   0.349   4.862   1.324
 1257SOL    HW1 3857   0.332   4.947   1.284
 1257SOL    HW2 3858   0.298   4.800   1.272
 1258SOL     OW 3859   1.093   2.829   1.289
 1258SOL    HW1 3860   1.076   2.745   1.246
 1258SOL    HW2 3861   1.137   2.882   1.223
 1259SOL     OW 3862   2.189   3.755   1.464
 1259SOL    HW1 3863   2.238   3.754   1.381
 1259SOL    HW2 3864   2.236   3.694   1.520
 1260SOL     OW 3865   0.413   3.312   1.947
 1260SOL    HW1 3866   0.427   3.218   1.950
 1260SOL    HW2 3867   0.380   3.328   1.858
 1261SOL     OW 3868   0.260   3.791   0.939
 1261SOL    HW1 3869   0.351   3.762   0.934
 1261SOL    HW2 3870   0.242   3.829   0.852
 1262SOL     OW 3871   1.770   4.582   1.124
 1262SOL    HW1 3872   1.693   4.569   1.069
 1262SOL    HW2 3873   1.801   4.493   1.143
 1263SOL     OW 3874   1.032   2.796   0.645
 1263SOL    HW1 3875   1.095   2.812   0.575
 1263SOL    HW2 3876   0.948   2.824   0.610
 1264SOL     OW 3877   0.289   2.882   2.360
 1264SOL    HW1 3878   0.212   2.909   2.312
 1264SOL    HW2 3879   0.300   2.789   2.339
 1265SOL     OW 3880   1.365   4.646   2.047
 1265SOL    HW1 3881   1.291   4.646   2.108
 1265SOL    HW2 3882   1.441   4.626   2.101
 1266SOL     OW 3883   1.140   4.395   1.881
 1266SOL    HW1 3884   1.228   4.420   1.854
 1266SOL    HW2 3885   1.106   4.344   1.807
 1267SOL     OW 3886   1.444   3.095   0.816
 1267SOL    HW1 3887   1.349   3.103   0.829
 1267SOL    HW2 3888   1.482   3.127   0.898
 1268SOL     OW 3889   1.645   4.091   1.674
 1268SOL    HW1 3890   1.569   4.144   1.651
 1268SOL    HW2 3891   1.610   4.003   1.686
 1269SOL     OW 3892   2.212   4.925   1.742
 1269SOL    HW1 3893   2.208   4.906   1.835
 1269SOL    HW2 3894   2.246   5.014   1.736
 1270SOL     OW 3895   1.741   2.658   2.243
 1270SOL    HW1 3896   1.738   2.614   2.328
 1270SOL    HW2 3897   1.683   2.605   2.187
 1271SOL     OW 3898   0.329   4.505   1.369
 1271SOL    HW1 3899   0.308   4.451   1.446
 1271SOL    HW2 3900   0.290   4.590   1.389
 1272SOL     OW 3901   0.056   4.155   0.011
 1272SOL    HW1 3902   0.095   4.238  -0.016
 1272SOL    HW2 3903  -0.038   4.168   0.001
 1273SOL     OW 3904   0.668   2.712   0.783
 1273SOL    HW1 3905   0.640   2.620   0.787
 1273SOL    HW2 3906   0.731   2.721   0.855
 1274SOL     OW 3907   1.580   4.475   2.170
 1274SOL    HW1 3908   1.504   4.425   2.199
 1274SOL    HW2 3909   1.638   4.476   2.246
 1275SOL     OW 3910   2.075   2.536   0.649
 1275SOL    HW1 3911   1.999   2.592   0.667
 1275SOL    HW2 3912   2.132   2.549   0.725
 1276SOL     OW 3913   0.646   3.832   0.048
 1276SOL    HW1 3914   0.621   3.901   0.110
 1276SOL    HW2 3915   0.633   3.872  -0.038
 1277SOL     OW 3916   2.314   2.870   1.594
 1277SOL    HW1 3917   2.375   2.797   1.594
 1277SOL    HW2 3918   2.230   2.830   1.572
 1278SOL     OW 3919   0.098   3.616   1.809
 1278SOL    HW1 3920   0.025   3.578   1.857
 1278SOL    HW2 3921   0.112   3.555   1.736
 1279SOL     OW 3922   1.589   3.073   0.126
 1279SOL    HW1 3923   1.593   3.169   0.125
 1279SOL    HW2 3924   1.670   3.046   0.169
 1280SOL     OW 3925   0.487   4.889   0.851
 1280SOL    HW1 3926   0.542   4.889   0.772
 1280SOL    HW2 3927   0.407   4.934   0.824
 1281SOL     OW 3928   2.374   4.473   1.319
 1281SOL    HW1 3929   2.440   4.441   1.257
 1281SOL    HW2 3930   2.294   4.477   1.267
 1282SOL     OW 3931   1.537   2.703   1.688
 1282SOL    HW1 3932   1.543   2.791   1.653
 1282SOL    HW2 3933   1.480   2.711   1.765
 1283SOL     OW 3934   2.154   3.110   1.144
 1283SOL    HW1 3935   2.112   3.194   1.131
 1283SOL    HW2 3936   2.213   3.100   1.069
 1284SOL     OW 3937   0.852   3.604   0.557
 1284SOL    HW1 3938   0.895   3.526   0.523
 1284SOL    HW2 3939   0.918   3.645   0.614
 1285SOL     OW 3940   2.065   3.768   2.398
 1285SOL    HW1 3941   2.074   3.689   2.451
 1285SOL    HW2 3942   2.144   3.818   2.416
 1286SOL     OW 3943   2.475   4.145   0.290
 1286SOL    HW1 3944   2.443   4.055   0.299
 1286SOL    HW2 3945   2.516   4.148   0.203
 1287SOL     OW 3946   0.486   4.357   0.943
 1287SOL    HW1 3947   0.537   4.383   0.866
 1287SOL    HW2 3948   0.540   4.289   0.984
 1288SOL     OW 3949   1.395   4.908   2.247
 1288SOL    HW1 3950   1.406   4.999   2.218
 1288SOL    HW2 3951   1.300   4.897   2.254
 1289SOL     OW 3952   0.233   4.448   0.817
 1289SOL    HW1 3953   0.295   4.456   0.890
 1289SOL    HW2 3954   0.219   4.354   0.807
 1290SOL     OW 3955   0.692   3.748   1.574
 1290SOL    HW1 3956   0.649   3.834   1.581
 1290SOL    HW2 3957   0.785   3.769   1.564
 1291SOL     OW 3958   1.146   3.937   0.758
 1291SOL    HW1 3959   1.065   3.948   0.809
 1291SOL    HW2 3960   1.215   3.968   0.817
 1292SOL     OW 3961   1.242   2.985   1.101
 1292SOL    HW1 3962   1.245   2.899   1.058
 1292SOL    HW2 3963   1.241   3.048   1.028
 1293SOL     OW 3964   0.629   4.580   0.558
 1293SOL    HW1 3965   0.703   4.629   0.522
 1293SOL    HW2 3966   0.558   4.643   0.563
 1294SOL     OW 3967   1.847   3.314   0.241
 1294SOL    HW1 3968   1.864   3.220   0.240
 1294SOL    HW2 3969   1.771   3.325   0.183
 1295SOL     OW 3970   0.551   2.526   2.334
 1295SOL    HW1 3971   0.541   2.446   2.282
 1295SOL    HW2 3972   0.629   2.568   2.298
 1296SOL     OW 3973   0.519   3.835   1.868
 1296SOL    HW1 3974   0.442   3.877   1.830
 1296SOL    HW2 3975   0.488   3.747   1.892
 1297SOL     OW 3976   0.034   3.255   1.564
 1297SOL    HW1 3977  -0.049   3.217   1.535
 1297SOL    HW2 3978   0.064   3.307   1.489
 1298SOL     OW 3979   1.711   3.767   1.076
 1298SOL    HW1 3980   1.728   3.695   1.137
 1298SOL    HW2 3981   1.798   3.793   1.046
 1299SOL     OW 3982   2.388   3.903   0.220
 1299SOL    HW1 3983   2.439   3.823   0.213
 1299SOL    HW2 3984   2.343   3.911   0.136
 1300SOL     OW 3985   1.154   2.549   0.675
 1300SOL    HW1 3986   1.110   2.634   0.673
 1300SOL    HW2 3987   1.242   2.567   0.640
 1301SOL     OW 3988   0.190   2.501   0.014
 1301SOL    HW1 3989   0.267   2.552   0.039
 1301SOL    HW2 3990   0.207   2.476  -0.077
 1302SOL     OW 3991   1.308   4.343   1.484
 1302SOL    HW1 3992   1.253   4.419   1.464
 1302SOL    HW2 3993   1.394   4.365   1.449
 1303SOL     OW 3994   1.878   3.682   0.252
 1303SOL    HW1 3995   1.914   3.640   0.173
 1303SOL    HW2 3996   1.808   3.623   0.280
 1304SOL     OW 3997   1.592   3.242   2.048
 1304SOL    HW1 3998   1.626   3.153   2.034
 1304SOL    HW2 3999   1.554   3.239   2.136
 1305SOL     OW 4000   0.893   4.151   1.873
 1305SOL    HW1 4001   0.805   4.115   1.888
 1305SOL    HW2 4002   0.949   4.102   1.933
 1306SOL     OW 4003   0.731   3.235   2.196
 1306SOL    HW1 4004   0.746   3.210   2.288
 1306SOL    HW2 4005   0.659   3.178   2.168
 1307SOL     OW 4006   0.984   3.749   1.088
 1307SOL    HW1 4007   1.036   3.736   1.009
 1307SOL    HW2 4008   0.908   3.798   1.058
 1308SOL     OW 4009   1.588   2.931   1.552
 1308SOL    HW1 4010   1.556   2.967   1.469
 1308SOL    HW2 4011   1.605   3.008   1.606
 1309SOL     OW 4012   0.096   3.296   1.270
 1309SOL    HW1 4013   0.102   3.329   1.181
 1309SOL    HW2 4014   0.005   3.268   1.279
 1310SOL     OW 4015   1.828   3.032   0.249
 1310SOL    HW1 4016   1.907   3.009   0.200
 1310SOL    HW2 4017   1.850   3.013   0.340
 1311SOL     OW 4018   1.372   4.490   1.831
 1311SOL    HW1 4019   1.360   4.539   1.912
 1311SOL    HW2 4020   1.431   4.544   1.778
 1312SOL     OW 4021   0.385   4.552   0.441
 1312SOL    HW1 4022   0.476   4.529   0.459
 1312SOL    HW2 4023   0.335   4.475   0.469
 1313SOL     OW 4024   0.839   4.178   1.358
 1313SOL    HW1 4025   0.764   4.213   1.310
 1313SOL    HW2 4026   0.805   4.161   1.446
 1314SOL     OW 4027   1.209   4.606   1.537
 1314SOL    HW1 4028   1.160   4.603   1.455
 1314SOL    HW2 4029   1.142   4.603   1.606
 1315SOL     OW 4030   2.347   4.490   0.938
 1315SOL    HW1 4031   2.300   4.553   0.883
 1315SOL    HW2 4032   2.302   4.494   1.023
 1316SOL     OW 4033   0.557   4.619   2.394
 1316SOL    HW1 4034   0.645   4.657   2.390
 1316SOL    HW2 4035   0.562   4.554   2.465
 1317SOL     OW 4036   1.686   3.452   0.624
 1317SOL    HW1 4037   1.744   3.527   0.638
 1317SOL    HW2 4038   1.720   3.384   0.681
 1318SOL     OW 4039   1.286   3.779   1.281
 1318SOL    HW1 4040   1.283   3.854   1.341
 1318SOL    HW2 4041   1.199   3.778   1.240
 1319SOL     OW 4042   0.449   3.520   1.019
 1319SOL    HW1 4043   0.515   3.485   1.079
 1319SOL    HW2 4044   0.395   3.578   1.074
 1320SOL     OW 4045   0.361   3.901   2.230
 1320SOL    HW1 4046   0.453   3.896   2.207
 1320SOL    HW2 4047   0.327   3.974   2.177
 1321SOL     OW 4048   1.855   3.653   0.646
 1321SOL    HW1 4049   1.916   3.656   0.720
 1321SOL    HW2 4050   1.810   3.737   0.649
 1322SOL     OW 4051   1.652   4.039   1.299
 1322SOL    HW1 4052   1.590   3.980   1.257
 1322SOL    HW2 4053   1.708   3.981   1.352
 1323SOL     OW 4054   0.805   4.652   0.222
 1323SOL    HW1 4055   0.744   4.582   0.197
 1323SOL    HW2 4056   0.859   4.614   0.291
 1324SOL     OW 4057   0.216   4.190   1.348
 1324SOL    HW1 4058   0.221   4.197   1.253
 1324SOL    HW2 4059   0.123   4.174   1.365
 1325SOL     OW 4060   0.642   3.532   1.426
 1325SOL    HW1 4061   0.718   3.587   1.410
 1325SOL    HW2 4062   0.593   3.578   1.494
 1326SOL     OW 4063   1.732   3.609   1.326
 1326SOL    HW1 4064   1.639   3.601   1.303
 1326SOL    HW2 4065   1.732   3.623   1.421
 1327SOL     OW 4066   1.223   2.606   1.764
 1327SOL    HW1 4067   1.137   2.615   1.722
 1327SOL    HW2 4068   1.220   2.520   1.805
 1328SOL     OW 4069   0.735   4.594   1.476
 1328SOL    HW1 4070   0.826   4.568   1.458
 1328SOL    HW2 4071   0.727   4.681   1.438
 1329SOL     OW 4072   2.097   4.376   0.075
 1329SOL    HW1 4073   2.181   4.410   0.108
 1329SOL    HW2 4074   2.057   4.333   0.150
 1330SOL     OW 4075   2.274   3.531   0.480
 1330SOL    HW1 4076   2.186   3.494   0.483
 1330SOL    HW2 4077   2.298   3.530   0.387
 1331SOL     OW 4078   2.448   2.721   0.333
 1331SOL    HW1 4079   2.509   2.767   0.391
 1331SOL    HW2 4080   2.487   2.634   0.321
 1332SOL     OW 4081   1.347   3.822   0.275
 1332SOL    HW1 4082   1.291   3.875   0.218
 1332SOL    HW2 4083   1.319   3.845   0.363
 1333SOL     OW 4084   0.367   3.796   1.409
 1333SOL    HW1 4085   0.418   3.836   1.480
 1333SOL    HW2 4086   0.282   3.840   1.414
 1334SOL     OW 4087   0.934   4.399   0.769
 1334SOL    HW1 4088   1.013   4.453   0.776
 1334SOL    HW2 4089   0.913   4.374   0.859
 1335SOL     OW 4090   1.239   2.713   2.454
 1335SOL    HW1 4091   1.237   2.655   2.530
 1335SOL    HW2 4092   1.323   2.759   2.461
 1336SOL     OW 4093   1.900   4.094   0.901
 1336SOL    HW1 4094   1.924   4.020   0.956
 1336SOL    HW2 4095   1.938   4.073   0.815
 1337SOL     OW 4096   0.922   4.036   0.363
 1337SOL    HW1 4097   0.850   3.981   0.393
 1337SOL    HW2 4098   0.958   4.074   0.444
 1338SOL     OW 4099   1.665   2.891   0.750
 1338SOL    HW1 4100   1.632   2.811   0.708
 1338SOL    HW2 4101   1.589   2.949   0.753
 1339SOL     OW 4102   2.300   4.192   2.422
 1339SOL    HW1 4103   2.222   4.228   2.466
 1339SOL    HW2 4104   2.288   4.216   2.330
 1340SOL     OW 4105   0.745   3.408   0.298
 1340SOL    HW1 4106   0.657   3.439   0.316
 1340SOL    HW2 4107   0.777   3.465   0.228
 1341SOL     OW 4108   1.336   4.520   0.428
 1341SOL    HW1 4109   1.324   4.608   0.393
 1341SOL    HW2 4110   1.316   4.528   0.521
 1342SOL     OW 4111   1.110   4.866   0.888
 1342SOL    HW1 4112   1.019   4.895   0.888
 1342SOL    HW2 4113   1.150   4.912   0.814
 1343SOL     OW 4114   0.069   4.917   0.614
 1343SOL    HW1 4115  -0.006   4.875   0.655
 1343SOL    HW2 4116   0.066   4.890   0.523
 1344SOL     OW 4117   0.247   2.525   0.808
 1344SOL    HW1 4118   0.185   2.539   0.880
 1344SOL    HW2 4119   0.195   2.482   0.740
 1345SOL     OW 4120   1.234   2.887   1.788
 1345SOL    HW1 4121   1.200   2.905   1.700
 1345SOL    HW2 4122   1.259   2.795   1.786
 1346SOL     OW 4123   0.500   3.722   0.834
 1346SOL    HW1 4124   0.512   3.664   0.760
 1346SOL    HW2 4125   0.562   3.690   0.900
 1347SOL     OW 4126   1.420   4.148   0.166
 1347SOL    HW1 4127   1.349   4.086   0.151
 1347SOL    HW2 4128   1.402   4.185   0.252
 1348SOL     OW 4129   2.311   4.431   0.221
 1348SOL    HW1 4130   2.326   4.515   0.264
 1348SOL    HW2 4131   2.393   4.383   0.234
 1349SOL     OW 4132   0.136   4.419   2.376
 1349SOL    HW1 4133   0.110   4.485   2.440
 1349SOL    HW2 4134   0.086   4.441   2.298
 1350SOL     OW 4135   0.588   2.562   1.802
 1350SOL    HW1 4136   0.626   2.530   1.720
 1350SOL    HW2 4137   0.494   2.559   1.787
 1351SOL     OW 4138   0.984   4.772   1.216
 1351SOL    HW1 4139   0.945   4.724   1.143
 1351SOL    HW2 4140   1.072   4.792   1.186
 1352SOL     OW 4141   2.468   3.978   0.961
 1352SOL    HW1 4142   2.483   3.982   1.055
 1352SOL    HW2 4143   2.434   4.064   0.938
 1353SOL     OW 4144   0.129   3.102   2.023
 1353SOL    HW1 4145   0.122   3.074   1.931
 1353SOL    HW2 4146   0.217   3.140   2.030
 1354SOL     OW 4147   1.807   3.638   1.608
 1354SOL    HW1 4148   1.898   3.667   1.623
 1354SOL    HW2 4149   1.804   3.551   1.647
 1355SOL     OW 4150   1.547   3.467   0.381
 1355SOL    HW1 4151   1.567   3.560   0.371
 1355SOL    HW2 4152   1.600   3.439   0.455
 1356SOL     OW 4153   0.275   2.582   1.137
 1356SOL    HW1 4154   0.296   2.654   1.077
 1356SOL    HW2 4155   0.198   2.540   1.097
 1357SOL     OW 4156   0.254   3.034   0.604
 1357SOL    HW1 4157   0.318   3.016   0.673
 1357SOL    HW2 4158   0.291   3.109   0.556
 1358SOL     OW 4159   0.402   3.334   0.196
 1358SOL    HW1 4160   0.454   3.291   0.128
 1358SOL    HW2 4161   0.329   3.373   0.148
 1359SOL     OW 4162   1.415   4.406   2.479
 1359SOL    HW1 4163   1.432   4.338   2.544
 1359SOL    HW2 4164   1.330   4.441   2.503
 1360SOL     OW 4165   1.273   3.496   1.740
 1360SOL    HW1 4166   1.359   3.467   1.771
 1360SOL    HW2 4167   1.293   3.558   1.670
 1361SOL     OW 4168   2.006   2.748   0.307
 1361SOL    HW1 4169   2.043   2.766   0.221
 1361SOL    HW2 4170   1.986   2.834   0.344
 1362SOL     OW 4171   1.009   4.148   0.596
 1362SOL    HW1 4172   0.964   4.229   0.621
 1362SOL    HW2 4173   1.079   4.139   0.660
 1363SOL     OW 4174   0.991   4.395   1.121
 1363SOL    HW1 4175   0.941   4.472   1.094
 1363SOL    HW2 4176   1.080   4.413   1.090
 1364SOL     OW 4177   0.965   4.423   1.405
 1364SOL    HW1 4178   0.918   4.342   1.426
 1364SOL    HW2 4179   0.986   4.415   1.312
 1365SOL     OW 4180   0.412   3.949   1.173
 1365SOL    HW1 4181   0.359   3.879   1.212
 1365SOL    HW2 4182   0.493   3.949   1.224
 1366SOL     OW 4183   1.882   2.642   2.014
 1366SOL    HW1 4184   1.842   2.646   2.101
 1366SOL    HW2 4185   1.829   2.579   1.966
 1367SOL     OW 4186   2.005   4.080   0.624
 1367SOL    HW1 4187   1.914   4.094   0.600
 1367SOL    HW2 4188   2.051   4.072   0.540
 1368SOL     OW 4189   0.740   3.854   1.031
 1368SOL    HW1 4190   0.676   3.845   1.102
 1368SOL    HW2 4191   0.725   3.777   0.976
 1369SOL     OW 4192   2.444   3.748   0.554
 1369SOL    HW1 4193   2.401   3.665   0.532
 1369SOL    HW2 4194   2.373   3.807   0.579
 1370SOL     OW 4195   0.324   3.795   0.087
 1370SOL    HW1 4196   0.385   3.770   0.157
 1370SOL    HW2 4197   0.335   3.890   0.079
 1371SOL     OW 4198   2.049   2.948   1.722
 1371SOL    HW1 4199   1.988   2.877   1.741
 1371SOL    HW2 4200   2.024   2.979   1.634
 1372SOL     OW 4201   0.408   2.814   0.352
 1372SOL    HW1 4202   0.414   2.724   0.322
 1372SOL    HW2 4203   0.484   2.824   0.410
 1373SOL     OW 4204   1.671   4.467   0.393
 1373SOL    HW1 4205   1.691   4.522   0.469
 1373SOL    HW2 4206   1.575   4.472   0.385
 1374SOL     OW 4207   1.140   4.535   2.441
 1374SOL    HW1 4208   1.073   4.475   2.474
 1374SOL    HW2 4209   1.133   4.528   2.346
 1375SOL     OW 4210   1.361   2.673   1.115
 1375SOL    HW1 4211   1.451   2.693   1.140
 1375SOL    HW2 4212   1.354   2.706   1.025
 1376SOL     OW 4213   0.556   2.565   1.092
 1376SOL    HW1 4214   0.486   2.530   1.148
 1376SOL    HW2 4215   0.539   2.526   1.006
 1377SOL     OW 4216   2.199   4.491   1.545
 1377SOL    HW1 4217   2.123   4.455   1.500
 1377SOL    HW2 4218   2.268   4.492   1.478
 1378SOL     OW 4219   2.136   4.837   1.028
 1378SOL    HW1 4220   2.179   4.917   0.998
 1378SOL    HW2 4221   2.161   4.829   1.120
 1379SOL     OW 4222   1.035   3.368   2.482
 1379SOL    HW1 4223   1.007   3.448   2.527
 1379SOL    HW2 4224   0.985   3.298   2.524
 1380SOL     OW 4225   2.473   3.880   1.939
 1380SOL    HW1 4226   2.548   3.842   1.985
 1380SOL    HW2 4227   2.472   3.836   1.854
 1381SOL     OW 4228   0.861   3.773   1.856
 1381SOL    HW1 4229   0.802   3.842   1.826
 1381SOL    HW2 4230   0.949   3.808   1.838
 1382SOL     OW 4231   0.523   2.823   2.088
 1382SOL    HW1 4232   0.469   2.744   2.086
 1382SOL    HW2 4233   0.591   2.804   2.153
 1383SOL     OW 4234   0.896   3.352   0.512
 1383SOL    HW1 4235   0.863   3.366   0.423
 1383SOL    HW2 4236   0.962   3.284   0.502
 1384SOL     OW 4237   0.650   3.311   1.302
 1384SOL    HW1 4238   0.561   3.291   1.272
 1384SOL    HW2 4239   0.640   3.391   1.353
 1385SOL     OW 4240   0.387   4.184   0.464
 1385SOL    HW1 4241   0.477   4.216   0.459
 1385SOL    HW2 4242   0.387   4.123   0.538
 1386SOL     OW 4243   0.877   3.647   1.308
 1386SOL    HW1 4244   0.954   3.635   1.362
 1386SOL    HW2 4245   0.908   3.696   1.232
 1387SOL     OW 4246   2.094   4.905   1.374
 1387SOL    HW1 4247   2.090   4.889   1.468
 1387SOL    HW2 4248   2.041   4.835   1.336
 1388SOL     OW 4249   0.911   2.693   1.713
 1388SOL    HW1 4250   0.858   2.740   1.777
 1388SOL    HW2 4251   0.898   2.742   1.632
 1389SOL     OW 4252   2.380   3.873   1.677
 1389SOL    HW1 4253   2.321   3.948   1.664
 1389SOL    HW2 4254   2.322   3.797   1.678
 1390SOL     OW 4255   0.938   4.015   0.936
 1390SOL    HW1 4256   0.853   3.998   0.976
 1390SOL    HW2 4257   0.993   4.046   1.008
 1391SOL     OW 4258   1.978   3.839   0.979
 1391SOL    HW1 4259   1.998   3.841   1.073
 1391SOL    HW2 4260   2.013   3.756   0.949
 1392SOL     OW 4261   0.994   3.365   2.207
 1392SOL    HW1 4262   0.898   3.370   2.202
 1392SOL    HW2 4263   1.013   3.373   2.301
 1393SOL     OW 4264   1.402   4.871   0.549
 1393SOL    HW1 4265   1.471   4.876   0.483
 1393SOL    HW2 4266   1.353   4.792   0.526
 1394SOL     OW 4267   0.335   4.549   0.153
 1394SOL    HW1 4268   0.313   4.456   0.158
 1394SOL    HW2 4269   0.326   4.580   0.244
 1395SOL     OW 4270   0.292   4.170   0.808
 1395SOL    HW1 4271   0.290   4.091   0.753
 1395SOL    HW2 4272   0.384   4.184   0.828
 1396SOL     OW 4273   0.175   2.773   0.575
 1396SOL    HW1 4274   0.231   2.850   0.583
 1396SOL    HW2 4275   0.236   2.700   0.568
 1397SOL     OW 4276   0.571   4.154   2.164
 1397SOL    HW1 4277   0.613   4.171   2.248
 1397SOL    HW2 4278   0.482   4.186   2.175
 1398SOL     OW 4279   1.594   3.814   1.672
 1398SOL    HW1 4280   1.541   3.769   1.737
 1398SOL    HW2 4281   1.671   3.759   1.661
 1399SOL     OW 4282   0.651   3.707   2.214
 1399SOL    HW1 4283   0.613   3.653   2.284
 1399SOL    HW2 4284   0.646   3.652   2.136
 1400SOL     OW 4285   0.237   3.349   0.527
 1400SOL    HW1 4286   0.265   3.366   0.617
 1400SOL    HW2 4287   0.304   3.291   0.492
 1401SOL     OW 4288   1.475   3.918   1.094
 1401SOL    HW1 4289   1.415   3.856   1.136
 1401SOL    HW2 4290   1.548   3.863   1.063
 1402SOL     OW 4291   0.943   4.883   1.713
 1402SOL    HW1 4292   0.925   4.866   1.621
 1402SOL    HW2 4293   0.946   4.978   1.719
 1403SOL     OW 4294   0.326   4.249   2.213
 1403SOL    HW1 4295   0.276   4.224   2.135
 1403SOL    HW2 4296   0.264   4.296   2.268
 1404SOL     OW 4297   0.041   3.653   2.301
 1404SOL    HW1 4298   0.105   3.656   2.230
 1404SOL    HW2 4299  -0.025   3.591   2.271
 1405SOL     OW 4300   0.253   4.018   2.000
 1405SOL    HW1 4301   0.257   3.976   1.914
 1405SOL    HW2 4302   0.202   4.097   1.986
 1406SOL     OW 4303   1.843   3.242   2.292
 1406SOL    HW1 4304   1.910   3.213   2.229
 1406SOL    HW2 4305   1.787   3.165   2.304
 1407SOL     OW 4306   1.595   4.097   2.243
 1407SOL    HW1 4307   1.659   4.133   2.181
 1407SOL    HW2 4308   1.623   4.130   2.328
 1408SOL     OW 4309   1.334   3.955   1.469
 1408SOL    HW1 4310   1.267   4.023   1.481
 1408SOL    HW2 4311   1.369   3.942   1.557
 1409SOL     OW 4312   0.292   4.372   1.597
 1409SOL    HW1 4313   0.350   4.333   1.663
 1409SOL    HW2 4314   0.249   4.297   1.556
 1410SOL     OW 4315   1.509   3.857   2.137
 1410SOL    HW1 4316   1.557   3.934   2.166
 1410SOL    HW2 4317   1.495   3.806   2.217
 1411SOL     OW 4318   1.306   4.185   2.004
 1411SOL    HW1 4319   1.260   4.262   1.971
 1411SOL    HW2 4320   1.387   4.181   1.953
 1412SOL     OW 4321   1.262   2.883   1.506
 1412SOL    HW1 4322   1.186   2.826   1.488
 1412SOL    HW2 4323   1.260   2.947   1.435
 1413SOL     OW 4324   2.123   4.633   0.818
 1413SOL    HW1 4325   2.116   4.702   0.884
 1413SOL    HW2 4326   2.034   4.621   0.786
 1414SOL     OW 4327   1.908   4.448   1.613
 1414SOL    HW1 4328   1.832   4.421   1.665
 1414SOL    HW2 4329   1.963   4.370   1.609
 1415SOL     OW 4330   1.664   4.268   0.823
 1415SOL    HW1 4331   1.742   4.212   0.831
 1415SOL    HW2 4332   1.599   4.213   0.780
 1416SOL     OW 4333   0.071   3.599   0.832
 1416SOL    HW1 4334   0.141   3.626   0.890
 1416SOL    HW2 4335   0.098   3.630   0.745
 1417SOL     OW 4336   1.127   4.923   2.260
 1417SOL    HW1 4337   1.087   4.989   2.316
 1417SOL    HW2 4338   1.082   4.932   2.176
 1418SOL     OW 4339   0.623   3.766   1.266
 1418SOL    HW1 4340   0.696   3.729   1.316
 1418SOL    HW2 4341   0.548   3.710   1.287
 1419SOL     OW 4342   1.577   3.421   2.381
 1419SOL    HW1 4343   1.631   3.413   2.302
 1419SOL    HW2 4344   1.507   3.356   2.369
 1420SOL     OW 4345   1.044   3.113   1.834
 1420SOL    HW1 4346   1.051   3.170   1.758
 1420SOL    HW2 4347   1.078   3.029   1.803
 1421SOL     OW 4348   0.440   3.050   1.134
 1421SOL    HW1 4349   0.507   3.075   1.070
 1421SOL    HW2 4350   0.358   3.080   1.095
 1422SOL     OW 4351   0.715   3.825   0.428
 1422SOL    HW1 4352   0.759   3.750   0.467
 1422SOL    HW2 4353   0.684   3.876   0.503
 1423SOL     OW 4354   2.349   4.870   1.288
 1423SOL    HW1 4355   2.398   4.810   1.344
 1423SOL    HW2 4356   2.265   4.882   1.334
 1424SOL     OW 4357   1.099   4.027   2.020
 1424SOL    HW1 4358   1.169   4.090   2.009
 1424SOL    HW2 4359   1.129   3.968   2.090
 1425SOL     OW 4360   1.316   3.434   0.028
 1425SOL    HW1 4361   1.253   3.374  -0.012
 1425SOL    HW2 4362   1.268   3.475   0.100
 1426SOL     OW 4363   2.146   4.855   2.014
 1426SOL    HW1 4364   2.115   4.774   2.055
 1426SOL    HW2 4365   2.191   4.901   2.085
 1427SOL     OW 4366   1.144   3.191   0.591
 1427SOL    HW1 4367   1.200   3.265   0.568
 1427SOL    HW2 4368   1.169   3.122   0.529
 1428SOL     OW 4369   1.192   3.180   0.242
 1428SOL    HW1 4370   1.098   3.173   0.259
 1428SOL    HW2 4371   1.222   3.250   0.300
 1429SOL     OW 4372   1.849   3.184   1.332
 1429SOL    HW1 4373   1.910   3.241   1.285
 1429SOL    HW2 4374   1.903   3.111   1.362
 1430SOL     OW 4375   1.148   3.502   1.117
 1430SOL    HW1 4376   1.108   3.580   1.155
 1430SOL    HW2 4377   1.119   3.430   1.173
 1431SOL     OW 4378   1.046   2.756   2.289
 1431SOL    HW1 4379   1.086   2.823   2.233
 1431SOL    HW2 4380   1.115   2.730   2.349
 1432SOL     OW 4381   2.211   4.007   1.988
 1432SOL    HW1 4382   2.288   3.987   1.935
 1432SOL    HW2 4383   2.160   3.925   1.988
 1433SOL     OW 4384   0.161   3.185   0.233
 1433SOL    HW1 4385   0.081   3.207   0.185
 1433SOL    HW2 4386   0.215   3.264   0.226
 1434SOL     OW 4387   0.099   3.799   1.157
 1434SOL    HW1 4388   0.140   3.815   1.071
 1434SOL    HW2 4389   0.134   3.714   1.184
 1435SOL     OW 4390   2.357   2.878   1.206
 1435SOL    HW1 4391   2.286   2.872   1.143
 1435SOL    HW2 4392   2.364   2.790   1.243
 1436SOL     OW 4393   1.135   3.855   1.793
 1436SOL    HW1 4394   1.214   3.809   1.820
 1436SOL    HW2 4395   1.133   3.933   1.848
 1437SOL     OW 4396   1.408   3.464   1.015
 1437SOL    HW1 4397   1.407   3.546   0.966
 1437SOL    HW2 4398   1.317   3.453   1.044
 1438SOL     OW 4399   0.288   3.174   1.401
 1438SOL    HW1 4400   0.231   3.222   1.342
 1438SOL    HW2 4401   0.328   3.106   1.346
 1439SOL     OW 4402   1.380   2.727   0.626
 1439SOL    HW1 4403   1.401   2.784   0.551
 1439SOL    HW2 4404   1.436   2.651   0.615
 1440SOL     OW 4405   1.885   4.566   0.236
 1440SOL    HW1 4406   1.844   4.496   0.287
 1440SOL    HW2 4407   1.964   4.526   0.200
 1441SOL     OW 4408   0.399   3.031   0.162
 1441SOL    HW1 4409   0.389   2.965   0.231
 1441SOL    HW2 4410   0.322   3.087   0.173
 1442SOL     OW 4411   1.262   4.615   1.233
 1442SOL    HW1 4412   1.272   4.640   1.141
 1442SOL    HW2 4413   1.293   4.692   1.282
 1443SOL     OW 4414   0.440   2.576   0.081
 1443SOL    HW1 4415   0.480   2.564  -0.006
 1443SOL    HW2 4416   0.514   2.593   0.139
 1444SOL     OW 4417   1.081   3.798   2.260
 1444SOL    HW1 4418   0.994   3.837   2.250
 1444SOL    HW2 4419   1.082   3.724   2.200
 1445SOL     OW 4420   0.227   4.138   1.064
 1445SOL    HW1 4421   0.278   4.059   1.083
 1445SOL    HW2 4422   0.229   4.145   0.968
 1446SOL     OW 4423   1.290   3.375   0.424
 1446SOL    HW1 4424   1.381   3.397   0.407
 1446SOL    HW2 4425   1.240   3.449   0.389
 1447SOL     OW 4426   1.723   4.467   2.443
 1447SOL    HW1 4427   1.744   4.375   2.459
 1447SOL    HW2 4428   1.633   4.477   2.473
 1448SOL     OW 4429   1.935   4.816   0.345
 1448SOL    HW1 4430   1.918   4.728   0.310
 1448SOL    HW2 4431   1.942   4.872   0.267
 1449SOL     OW 4432   0.927   2.854   0.213
 1449SOL    HW1 4433   0.969   2.919   0.157
 1449SOL    HW2 4434   0.874   2.801   0.153
 1450SOL     OW 4435   2.256   4.093   1.162
 1450SOL    HW1 4436   2.162   4.106   1.154
 1450SOL    HW2 4437   2.293   4.138   1.086
 1451SOL     OW 4438   1.071   3.283   1.322
 1451SOL    HW1 4439   1.022   3.303   1.402
 1451SOL    HW2 4440   1.163   3.295   1.347
 1452SOL     OW 4441   0.954   4.938   2.040
 1452SOL    HW1 4442   1.004   4.940   1.959
 1452SOL    HW2 4443   0.884   4.875   2.022
 1453SOL     OW 4444   0.306   2.801   0.995
 1453SOL    HW1 4445   0.246   2.872   1.018
 1453SOL    HW2 4446   0.354   2.834   0.919
 1454SOL     OW 4447   1.988   4.953   0.092
 1454SOL    HW1 4448   1.944   4.919   0.014
 1454SOL    HW2 4449   2.043   5.024   0.059
 1455SOL     OW 4450   1.932   4.373   1.301
 1455SOL    HW1 4451   1.955   4.333   1.217
 1455SOL    HW2 4452   1.837   4.364   1.307
 1456SOL     OW 4453   0.277   2.891   1.306
 1456SOL    HW1 4454   0.297   2.902   1.213
 1456SOL    HW2 4455   0.362   2.880   1.348
 1457SOL     OW 4456   1.555   4.955   0.311
 1457SOL    HW1 4457   1.601   5.036   0.332
 1457SOL    HW2 4458   1.621   4.899   0.270
 1458SOL     OW 4459   0.655   4.944   0.639
 1458SOL    HW1 4460   0.747   4.962   0.623
 1458SOL    HW2 4461   0.625   4.898   0.560
 1459SOL     OW 4462   1.419   3.208   2.268
 1459SOL    HW1 4463   1.347   3.206   2.205
 1459SOL    HW2 4464   1.382   3.170   2.348
 1460SOL     OW 4465   0.146   4.492   1.837
 1460SOL    HW1 4466   0.077   4.542   1.793
 1460SOL    HW2 4467   0.177   4.430   1.771
 1461SOL     OW 4468   0.781   3.584   0.088
 1461SOL    HW1 4469   0.744   3.673   0.092
 1461SOL    HW2 4470   0.710   3.530   0.055
 1462SOL     OW 4471   2.321   2.842   0.552
 1462SOL    HW1 4472   2.319   2.794   0.470
 1462SOL    HW2 4473   2.364   2.782   0.613
 1463SOL     OW 4474   0.184   3.458   0.111
 1463SOL    HW1 4475   0.166   3.541   0.153
 1463SOL    HW2 4476   0.124   3.454   0.037
 1464SOL     OW 4477   1.982   4.680   1.244
 1464SOL    HW1 4478   1.936   4.672   1.328
 1464SOL    HW2 4479   1.916   4.658   1.178
 1465SOL     OW 4480   1.198   3.570   0.241
 1465SOL    HW1 4481   1.277   3.625   0.248
 1465SOL    HW2 4482   1.137   3.622   0.189
 1466SOL     OW 4483   1.654   4.018   0.231
 1466SOL    HW1 4484   1.663   3.956   0.159
 1466SOL    HW2 4485   1.580   4.074   0.206
 1467SOL     OW 4486   2.450   4.064   2.152
 1467SOL    HW1 4487   2.542   4.049   2.173
 1467SOL    HW2 4488   2.422   3.985   2.106
 1468SOL     OW 4489   0.046   2.498   1.002
 1468SOL    HW1 4490   0.052   2.404   0.981
 1468SOL    HW2 4491  -0.046   2.519   0.987
 1469SOL     OW 4492   1.303   3.032   0.028
 1469SOL    HW1 4493   1.267   3.094   0.091
 1469SOL    HW2 4494   1.384   3.001   0.067
 1470SOL     OW 4495   0.754   4.267   1.052
 1470SOL    HW1 4496   0.849   4.261   1.066
 1470SOL    HW2 4497   0.721   4.308   1.132
 1471SOL     OW 4498   1.969   4.073   1.203
 1471SOL    HW1 4499   1.984   3.999   1.262
 1471SOL    HW2 4500   1.874   4.080   1.197
 1472SOL     OW 4501   2.154   2.715   2.094
 1472SOL    HW1 4502   2.078   2.679   2.048
 1472SOL    HW2 4503   2.201   2.639   2.128
 1473SOL     OW 4504   2.097   2.671   1.475
 1473SOL    HW1 4505   2.062   2.594   1.429
 1473SOL    HW2 4506   2.188   2.677   1.446
 1474SOL     OW 4507   0.875   4.608   1.001
 1474SOL    HW1 4508   0.784   4.617   1.029
 1474SOL    HW2 4509   0.874   4.632   0.909
 1475SOL     OW 4510   2.158   2.838   1.027
 1475SOL    HW1 4511   2.080   2.803   1.070
 1475SOL    HW2 4512   2.130   2.924   0.994
 1476SOL     OW 4513   2.445   4.467   2.130
 1476SOL    HW1 4514   2.434   4.549   2.179
 1476SOL    HW2 4515   2.437   4.492   2.038
 1477SOL     OW 4516   0.896   2.860   1.488
 1477SOL    HW1 4517   0.856   2.943   1.465
 1477SOL    HW2 4518   0.961   2.844   1.419
 1478SOL     OW 4519   2.070   3.851   0.358
 1478SOL    HW1 4520   2.010   3.781   0.335
 1478SOL    HW2 4521   2.128   3.813   0.423
 1479SOL     OW 4522   0.935   3.370   0.950
 1479SOL    HW1 4523   0.931   3.283   0.991
 1479SOL    HW2 4524   0.980   3.355   0.867
 1480SOL     OW 4525   2.343   3.506   2.144
 1480SOL    HW1 4526   2.351   3.464   2.058
 1480SOL    HW2 4527   2.253   3.537   2.148
 1481SOL     OW 4528   1.642   4.872   1.050
 1481SOL    HW1 4529   1.619   4.916   1.132
 1481SOL    HW2 4530   1.558   4.862   1.004
 1482SOL     OW 4531   0.730   3.588   1.030
 1482SOL    HW1 4532   0.786   3.524   0.985
 1482SOL    HW2 4533   0.764   3.591   1.119
 1483SOL     OW 4534   0.575   4.709   1.060
 1483SOL    HW1 4535   0.570   4.757   0.977
 1483SOL    HW2 4536   0.491   4.662   1.065
 1484SOL     OW 4537   1.153   3.148   2.076
 1484SOL    HW1 4538   1.110   3.224   2.114
 1484SOL    HW2 4539   1.101   3.127   1.999
 1485SOL     OW 4540   0.667   3.056   0.236
 1485SOL    HW1 4541   0.671   3.082   0.328
 1485SOL    HW2 4542   0.583   3.011   0.227
 1486SOL     OW 4543   1.224   4.856   1.347
 1486SOL    HW1 4544   1.285   4.906   1.402
 1486SOL    HW2 4545   1.163   4.815   1.410
 1487SOL     OW 4546   1.658   3.155   1.743
 1487SOL    HW1 4547   1.565   3.165   1.766
 1487SOL    HW2 4548   1.697   3.113   1.819
 1488SOL     OW 4549   1.328   4.633   0.971
 1488SOL    HW1 4550   1.390   4.596   0.907
 1488SOL    HW2 4551   1.334   4.727   0.958
 1489SOL     OW 4552   1.045   3.595   0.856
 1489SOL    HW1 4553   1.140   3.605   0.851
 1489SOL    HW2 4554   1.032   3.521   0.914
 1490SOL     OW 4555   2.043   3.366   0.430
 1490SOL    HW1 4556   1.958   3.347   0.390
 1490SOL    HW2 4557   2.095   3.287   0.413
 1491SOL     OW 4558   1.686   4.304   1.225
 1491SOL    HW1 4559   1.691   4.209   1.223
 1491SOL    HW2 4560   1.596   4.323   1.251
 1492SOL     OW 4561   1.808   2.775   1.454
 1492SOL    HW1 4562   1.866   2.747   1.525
 1492SOL    HW2 4563   1.723   2.788   1.496
 1493SOL     OW 4564   1.826   3.324   1.584
 1493SOL    HW1 4565   1.805   3.318   1.491
 1493SOL    HW2 4566   1.759   3.271   1.627
 1494SOL     OW 4567   0.426   3.232   2.379
 1494SOL    HW1 4568   0.357   3.263   2.320
 1494SOL    HW2 4569   0.403   3.141   2.397
 1495SOL     OW 4570   1.008   2.896   0.877
 1495SOL    HW1 4571   0.947   2.852   0.936
 1495SOL    HW2 4572   0.989   2.859   0.791
 1496SOL     OW 4573   0.222   3.550   1.244
 1496SOL    HW1 4574   0.192   3.460   1.260
 1496SOL    HW2 4575   0.225   3.590   1.331
 1497SOL     OW 4576   1.970   4.884   1.633
 1497SOL    HW1 4577   2.048   4.903   1.685
 1497SOL    HW2 4578   1.901   4.936   1.674
 1498SOL     OW 4579   2.237   3.077   0.881
 1498SOL    HW1 4580   2.330   3.076   0.858
 1498SOL    HW2 4581   2.209   3.167   0.862
 1499SOL     OW 4582   2.392   2.839   2.443
 1499SOL    HW1 4583   2.418   2.748   2.459
 1499SOL    HW2 4584   2.436   2.863   2.361
 1500SOL     OW 4585   0.914   3.183   0.284
 1500SOL    HW1 4586   0.851   3.256   0.287
 1500SOL    HW2 4587   0.878   3.123   0.219
 1501SOL     OW 4588   1.795   4.220   2.414
 1501SOL    HW1 4589   1.831   4.137   2.445
 1501SOL    HW2 4590   1.852   4.245   2.342
 1502SOL     OW 4591   2.224   3.604   1.720
 1502SOL    HW1 4592   2.282   3.532   1.745
 1502SOL    HW2 4593   2.136   3.566   1.725
 1503SOL     OW 4594   2.048   3.147   2.137
 1503SOL    HW1 4595   2.048   3.084   2.209
 1503SOL    HW2 4596   2.116   3.116   2.077
 1504SOL     OW 4597   0.691   3.191   1.746
 1504SOL    HW1 4598   0.748   3.146   1.809
 1504SOL    HW2 4599   0.700   3.284   1.768
 1505SOL     OW 4600   1.809   4.698   1.914
 1505SOL    HW1 4601   1.898   4.668   1.932
 1505SOL    HW2 4602   1.812   4.732   1.825
 1506SOL     OW 4603   2.291   3.350   0.832
 1506SOL    HW1 4604   2.345   3.329   0.756
 1506SOL    HW2 4605   2.201   3.340   0.802
 1507SOL     OW 4606   1.732   2.495   1.784
 1507SOL    HW1 4607   1.697   2.453   1.862
 1507SOL    HW2 4608   1.660   2.547   1.750
 1508SOL     OW 4609   2.361   2.636   1.378
 1508SOL    HW1 4610   2.455   2.648   1.387
 1508SOL    HW2 4611   2.351   2.559   1.323
 1509SOL     OW 4612   1.255   4.373   1.020
 1509SOL    HW1 4613   1.312   4.321   1.077
 1509SOL    HW2 4614   1.283   4.463   1.034
 1510SOL     OW 4615   2.168   4.493   1.158
 1510SOL    HW1 4616   2.117   4.553   1.213
 1510SOL    HW2 4617   2.102   4.448   1.104
 1511SOL     OW 4618   2.247   2.500   2.218
 1511SOL    HW1 4619   2.320   2.543   2.262
 1511SOL    HW2 4620   2.216   2.434   2.280
 1512SOL     OW 4621   2.132   2.887   2.331
 1512SOL    HW1 4622   2.214   2.859   2.371
 1512SOL    HW2 4623   2.131   2.843   2.246
 1513SOL     OW 4624   1.111   4.125   1.147
 1513SOL    HW1 4625   1.061   4.204   1.169
 1513SOL    HW2 4626   1.200   4.144   1.178
 1514SOL     OW 4627   1.465   3.095   0.526
 1514SOL    HW1 4628   1.548   3.142   0.522
 1514SOL    HW2 4629   1.440   3.100   0.618
 1515SOL     OW 4630   2.318   3.514   0.180
 1515SOL    HW1 4631   2.391   3.567   0.146
 1515SOL    HW2 4632   2.344   3.424   0.163
 1516SOL     OW 4633   0.359   4.275   0.199
 1516SOL    HW1 4634   0.370   4.216   0.124
 1516SOL    HW2 4635   0.354   4.218   0.275
 1517SOL     OW 4636   0.011   4.690   1.425
 1517SOL    HW1 4637  -0.033   4.608   1.403
 1517SOL    HW2 4638   0.087   4.692   1.367
 1518SOL     OW 4639   2.108   2.937   0.678
 1518SOL    HW1 4640   2.178   2.903   0.624
 1518SOL    HW2 4641   2.152   2.979   0.752
 1519SOL     OW 4642   0.625   4.409   1.673
 1519SOL    HW1 4643   0.597   4.488   1.626
 1519SOL    HW2 4644   0.691   4.440   1.736
 1520SOL     OW 4645   2.203   4.794   2.421
 1520SOL    HW1 4646   2.262   4.809   2.495
 1520SOL    HW2 4647   2.129   4.747   2.459
 1521SOL     OW 4648   1.095   3.605   2.053
 1521SOL    HW1 4649   1.083   3.612   1.958
 1521SOL    HW2 4650   1.049   3.524   2.077
 1522SOL     OW 4651   0.056   4.643   0.046
 1522SOL    HW1 4652   0.001   4.706   0.092
 1522SOL    HW2 4653   0.137   4.641   0.097
 1523SOL     OW 4654   1.093   4.444   2.160
 1523SOL    HW1 4655   1.086   4.449   2.065
 1523SOL    HW2 4656   1.061   4.357   2.182
 1524SOL     OW 4657   1.336   4.070   3.375
 1524SOL    HW1 4658   1.399   4.040   3.440
 1524SOL    HW2 4659   1.287   4.139   3.420
 1525SOL     OW 4660   2.010   3.801   4.152
 1525SOL    HW1 4661   2.066   3.774   4.079
 1525SOL    HW2 4662   2.058   3.775   4.230
 1526SOL     OW 4663   2.228   3.133   4.149
 1526SOL    HW1 4664   2.158   3.076   4.182
 1526SOL    HW2 4665   2.281   3.075   4.094
 1527SOL     OW 4666   0.645   4.823   2.864
 1527SOL    HW1 4667   0.653   4.914   2.835
 1527SOL    HW2 4668   0.709   4.776   2.811
 1528SOL     OW 4669   1.951   3.789   3.767
 1528SOL    HW1 4670   1.890   3.719   3.788
 1528SOL    HW2 4671   2.021   3.781   3.832
 1529SOL     OW 4672   1.871   4.001   4.014
 1529SOL    HW1 4673   1.920   3.928   4.050
 1529SOL    HW2 4674   1.814   4.030   4.086
 1530SOL     OW 4675   1.433   2.693   4.675
 1530SOL    HW1 4676   1.356   2.741   4.706
 1530SOL    HW2 4677   1.506   2.730   4.725
 1531SOL     OW 4678   0.349   4.721   4.467
 1531SOL    HW1 4679   0.362   4.660   4.540
 1531SOL    HW2 4680   0.292   4.674   4.407
 1532SOL     OW 4681   0.321   4.955   4.323
 1532SOL    HW1 4682   0.227   4.966   4.310
 1532SOL    HW2 4683   0.329   4.871   4.370
 1533SOL     OW 4684   1.799   4.216   4.340
 1533SOL    HW1 4685   1.745   4.188   4.267
 1533SOL    HW2 4686   1.756   4.295   4.373
 1534SOL     OW 4687   1.397   4.162   3.675
 1534SOL    HW1 4688   1.444   4.174   3.758
 1534SOL    HW2 4689   1.411   4.070   3.653
 1535SOL     OW 4690   1.760   4.611   3.097
 1535SOL    HW1 4691   1.803   4.696   3.099
 1535SOL    HW2 4692   1.831   4.548   3.110
 1536SOL     OW 4693   0.387   3.421   3.264
 1536SOL    HW1 4694   0.455   3.472   3.221
 1536SOL    HW2 4695   0.378   3.463   3.350
 1537SOL     OW 4696   1.713   3.210   2.972
 1537SOL    HW1 4697   1.709   3.298   3.009
 1537SOL    HW2 4698   1.727   3.224   2.879
 1538SOL     OW 4699   1.615   2.762   3.606
 1538SOL    HW1 4700   1.632   2.852   3.636
 1538SOL    HW2 4701   1.701   2.731   3.577
 1539SOL     OW 4702   1.889   2.508   3.546
 1539SOL    HW1 4703   1.816   2.461   3.586
 1539SOL    HW2 4704   1.954   2.441   3.528
 1540SOL     OW 4705   1.616   2.509   3.810
 1540SOL    HW1 4706   1.659   2.594   3.820
 1540SOL    HW2 4707   1.543   2.512   3.873
 1541SOL     OW 4708   0.611   4.462   2.639
 1541SOL    HW1 4709   0.519   4.481   2.658
 1541SOL    HW2 4710   0.610   4.371   2.610
 1542SOL     OW 4711   2.330   3.747   3.379
 1542SOL    HW1 4712   2.396   3.684   3.350
 1542SOL    HW2 4713   2.381   3.821   3.411
 1543SOL     OW 4714   1.804   3.739   4.762
 1543SOL    HW1 4715   1.834   3.649   4.775
 1543SOL    HW2 4716   1.876   3.793   4.794
 1544SOL     OW 4717   2.227   3.135   2.887
 1544SOL    HW1 4718   2.240   3.067   2.953
 1544SOL    HW2 4719   2.304   3.128   2.831
 1545SOL     OW 4720   0.703   3.990   3.159
 1545SOL    HW1 4721   0.673   4.027   3.242
 1545SOL    HW2 4722   0.798   3.985   3.168
 1546SOL     OW 4723   2.227   4.255   4.649
 1546SOL    HW1 4724   2.274   4.332   4.619
 1546SOL    HW2 4725   2.285   4.182   4.627
 1547SOL     OW 4726   1.982   4.450   3.152
 1547SOL    HW1 4727   2.078   4.452   3.149
 1547SOL    HW2 4728   1.958   4.370   3.106
 1548SOL     OW 4729   0.479   4.242   3.896
 1548SOL    HW1 4730   0.401   4.216   3.847
 1548SOL    HW2 4731   0.445   4.288   3.973
 1549SOL     OW 4732   0.564   3.214   3.265
 1549SOL    HW1 4733   0.617   3.231   3.343
 1549SOL    HW2 4734   0.505   3.289   3.260
 1550SOL     OW 4735   0.930   4.920   3.922
 1550SOL    HW1 4736   0.947   4.858   3.851
 1550SOL    HW2 4737   0.858   4.975   3.890
 1551SOL     OW 4738   0.114   4.320   2.944
 1551SOL    HW1 4739   0.050   4.256   2.913
 1551SOL    HW2 4740   0.198   4.277   2.931
 1552SOL     OW 4741   1.140   4.629   3.228
 1552SOL    HW1 4742   1.110   4.702   3.281
 1552SOL    HW2 4743   1.195   4.577   3.288
 1553SOL     OW 4744   0.134   3.887   3.220
 1553SOL    HW1 4745   0.073   3.927   3.283
 1553SOL    HW2 4746   0.077   3.840   3.159
 1554SOL     OW 4747   1.193   2.897   4.628
 1554SOL    HW1 4748   1.198   2.857   4.542
 1554SOL    HW2 4749   1.202   2.991   4.612
 1555SOL     OW 4750   0.981   4.325   2.508
 1555SOL    HW1 4751   1.002   4.253   2.568
 1555SOL    HW2 4752   0.965   4.282   2.424
 1556SOL     OW 4753   2.025   3.554   4.607
 1556SOL    HW1 4754   1.976   3.543   4.688
 1556SOL    HW2 4755   1.994   3.485   4.550
 1557SOL     OW 4756   1.961   3.469   4.278
 1557SOL    HW1 4757   1.924   3.414   4.209
 1557SOL    HW2 4758   1.935   3.426   4.360
 1558SOL     OW 4759   2.269   4.393   3.057
 1558SOL    HW1 4760   2.349   4.427   3.097
 1558SOL    HW2 4761   2.290   4.303   3.032
 1559SOL     OW 4762   1.846   2.795   4.291
 1559SOL    HW1 4763   1.757   2.761   4.288
 1559SOL    HW2 4764   1.883   2.758   4.371
 1560SOL     OW 4765   1.262   4.854   4.365
 1560SOL    HW1 4766   1.200   4.791   4.328
 1560SOL    HW2 4767   1.327   4.801   4.411
 1561SOL     OW 4768   1.773   3.417   3.634
 1561SOL    HW1 4769   1.746   3.497   3.678
 1561SOL    HW2 4770   1.868   3.414   3.647
 1562SOL     OW 4771   1.572   3.248   3.546
 1562SOL    HW1 4772   1.625   3.311   3.596
 1562SOL    HW2 4773   1.508   3.303   3.499
 1563SOL     OW 4774   0.878   3.495   4.367
 1563SOL    HW1 4775   0.819   3.466   4.436
 1563SOL    HW2 4776   0.865   3.590   4.361
 1564SOL     OW 4777   0.348   2.622   4.562
 1564SOL    HW1 4778   0.344   2.565   4.639
 1564SOL    HW2 4779   0.366   2.563   4.489
 1565SOL     OW 4780   1.291   4.006   4.736
 1565SOL    HW1 4781   1.327   3.917   4.727
 1565SOL    HW2 4782   1.343   4.059   4.676
 1566SOL     OW 4783   1.221   4.757   2.824
 1566SOL    HW1 4784   1.184   4.843   2.842
 1566SOL    HW2 4785   1.194   4.737   2.734
 1567SOL     OW 4786   0.825   2.933   2.986
 1567SOL    HW1 4787   0.863   2.941   2.899
 1567SOL    HW2 4788   0.781   3.016   3.001
 1568SOL     OW 4789   0.436   3.937   3.069
 1568SOL    HW1 4790   0.514   3.951   3.122
 1568SOL    HW2 4791   0.407   3.848   3.091
 1569SOL     OW 4792   2.455   2.673   3.197
 1569SOL    HW1 4793   2.471   2.587   3.158
 1569SOL    HW2 4794   2.537   2.721   3.183
 1570SOL     OW 4795   1.508   4.515   3.289
 1570SOL    HW1 4796   1.536   4.426   3.312
 1570SOL    HW2 4797   1.585   4.555   3.249
 1571SOL     OW 4798   0.266   3.645   3.050
 1571SOL    HW1 4799   0.180   3.673   3.018
 1571SOL    HW2 4800   0.277   3.556   3.016
 1572SOL     OW 4801   1.937   3.998   2.585
 1572SOL    HW1 4802   1.931   3.942   2.662
 1572SOL    HW2 4803   1.974   3.942   2.517
 1573SOL     OW 4804   0.857   4.398   2.833
 1573SOL    HW1 4805   0.923   4.358   2.777
 1573SOL    HW2 4806   0.907   4.451   2.896
 1574SOL     OW 4807   0.365   4.812   2.773
 1574SOL    HW1 4808   0.447   4.763   2.778
 1574SOL    HW2 4809   0.348   4.819   2.679
 1575SOL     OW 4810   2.151   4.099   2.867
 1575SOL    HW1 4811   2.116   4.011   2.849
 1575SOL    HW2 4812   2.235   4.101   2.822
 1576SOL     OW 4813   1.553   3.476   4.395
 1576SOL    HW1 4814   1.637   3.517   4.411
 1576SOL    HW2 4815   1.555   3.396   4.449
 1577SOL     OW 4816   0.063   2.976   4.279
 1577SOL    HW1 4817   0.079   2.949   4.189
 1577SOL    HW2 4818  -0.022   2.938   4.301
 1578SOL     OW 4819   1.448   2.654   4.413
 1578SOL    HW1 4820   1.451   2.661   4.509
 1578SOL    HW2 4821   1.373   2.597   4.396
 1579SOL     OW 4822   1.277   3.930   3.014
 1579SOL    HW1 4823   1.235   3.927   3.100
 1579SOL    HW2 4824   1.339   4.003   3.020
 1580SOL     OW 4825   1.910   2.930   2.981
 1580SOL    HW1 4826   1.842   2.923   3.048
 1580SOL    HW2 4827   1.992   2.926   3.030
 1581SOL     OW 4828   1.841   4.187   4.620
 1581SOL    HW1 4829   1.898   4.119   4.653
 1581SOL    HW2 4830   1.845   4.179   4.525
 1582SOL     OW 4831   0.165   4.262   4.478
 1582SOL    HW1 4832   0.088   4.293   4.525
 1582SOL    HW2 4833   0.202   4.341   4.438
 1583SOL     OW 4834   0.858   3.910   4.681
 1583SOL    HW1 4835   0.835   3.961   4.604
 1583SOL    HW2 4836   0.813   3.827   4.669
 1584SOL     OW 4837   2.262   3.481   3.556
 1584SOL    HW1 4838   2.250   3.448   3.467
 1584SOL    HW2 4839   2.343   3.533   3.552
 1585SOL     OW 4840   0.637   4.083   2.698
 1585SOL    HW1 4841   0.610   4.119   2.783
 1585SOL    HW2 4842   0.732   4.087   2.699
 1586SOL     OW 4843   2.393   3.390   4.288
 1586SOL    HW1 4844   2.414   3.352   4.203
 1586SOL    HW2 4845   2.379   3.315   4.346
 1587SOL     OW 4846   2.029   3.352   3.229
 1587SOL    HW1 4847   1.951   3.299   3.248
 1587SOL    HW2 4848   2.024   3.369   3.135
 1588SOL     OW 4849   1.075   2.593   3.645
 1588SOL    HW1 4850   1.159   2.605   3.601
 1588SOL    HW2 4851   1.088   2.520   3.704
 1589SOL     OW 4852   1.651   2.651   3.087
 1589SOL    HW1 4853   1.660   2.587   3.158
 1589SOL    HW2 4854   1.718   2.625   3.023
 1590SOL     OW 4855   0.032   4.485   3.119
 1590SOL    HW1 4856   0.062   4.438   3.042
 1590SOL    HW2 4857   0.107   4.484   3.179
 1591SOL     OW 4858   0.935   4.915   3.066
 1591SOL    HW1 4859   0.961   4.931   2.975
 1591SOL    HW2 4860   1.015   4.928   3.116
 1592SOL     OW 4861   1.207   3.940   2.509
 1592SOL    HW1 4862   1.179   3.856   2.473
 1592SOL    HW2 4863   1.244   3.987   2.435
 1593SOL     OW 4864   1.788   3.636   4.451
 1593SOL    HW1 4865   1.728   3.699   4.493
 1593SOL    HW2 4866   1.874   3.678   4.457
 1594SOL     OW 4867   1.649   3.807   2.516
 1594SOL    HW1 4868   1.583   3.741   2.496
 1594SOL    HW2 4869   1.676   3.841   2.431
 1595SOL     OW 4870   0.553   2.980   4.134
 1595SOL    HW1 4871   0.567   3.069   4.168
 1595SOL    HW2 4872   0.597   2.923   4.197
 1596SOL     OW 4873   1.282   2.786   3.375
 1596SOL    HW1 4874   1.300   2.762   3.284
 1596SOL    HW2 4875   1.207   2.845   3.370
 1597SOL     OW 4876   0.414   4.315   4.328
 1597SOL    HW1 4877   0.501   4.325   4.290
 1597SOL    HW2 4878   0.426   4.251   4.398
 1598SOL     OW 4879   0.246   2.736   4.236
 1598SOL    HW1 4880   0.271   2.729   4.329
 1598SOL    HW2 4881   0.254   2.829   4.216
 1599SOL     OW 4882   0.556   3.992   4.040
 1599SOL    HW1 4883   0.525   4.063   3.985
 1599SOL    HW2 4884   0.623   4.031   4.095
 1600SOL     OW 4885   0.649   2.823   4.341
 1600SOL    HW1 4886   0.606   2.822   4.427
 1600SOL    HW2 4887   0.646   2.732   4.312
 1601SOL     OW 4888   1.730   3.004   4.475
 1601SOL    HW1 4889   1.726   2.976   4.566
 1601SOL    HW2 4890   1.787   2.940   4.432
 1602SOL     OW 4891   0.372   3.612   4.406
 1602SOL    HW1 4892   0.314   3.577   4.338
 1602SOL    HW2 4893   0.441   3.546   4.414
 1603SOL     OW 4894   1.060   4.276   4.133
 1603SOL    HW1 4895   1.081   4.326   4.054
 1603SOL    HW2 4896   1.058   4.185   4.104
 1604SOL     OW 4897   1.663   4.905   4.557
 1604SOL    HW1 4898   1.586   4.888   4.611
 1604SOL    HW2 4899   1.708   4.821   4.553
 1605SOL     OW 4900   0.488   2.764   3.974
 1605SOL    HW1 4901   0.509   2.706   4.046
 1605SOL    HW2 4902   0.510   2.852   4.006
 1606SOL     OW 4903   0.849   4.426   4.333
 1606SOL    HW1 4904   0.842   4.348   4.388
 1606SOL    HW2 4905   0.881   4.394   4.249
 1607SOL     OW 4906   1.418   4.953   3.995
 1607SOL    HW1 4907   1.409   5.033   4.047
 1607SOL    HW2 4908   1.397   4.882   4.056
 1608SOL     OW 4909   0.743   3.090   3.921
 1608SOL    HW1 4910   0.724   3.169   3.871
 1608SOL    HW2 4911   0.669   3.082   3.983
 1609SOL     OW 4912   2.058   4.603   4.553
 1609SOL    HW1 4913   2.043   4.542   4.625
 1609SOL    HW2 4914   2.093   4.549   4.482
 1610SOL     OW 4915   0.840   4.730   3.251
 1610SOL    HW1 4916   0.877   4.756   3.166
 1610SOL    HW2 4917   0.751   4.764   3.250
 1611SOL     OW 4918   2.366   3.217   4.483
 1611SOL    HW1 4919   2.453   3.180   4.497
 1611SOL    HW2 4920   2.315   3.146   4.444
 1612SOL     OW 4921   1.873   4.675   3.971
 1612SOL    HW1 4922   1.895   4.599   4.024
 1612SOL    HW2 4923   1.899   4.750   4.025
 1613SOL     OW 4924   0.629   2.744   3.007
 1613SOL    HW1 4925   0.706   2.799   3.016
 1613SOL    HW2 4926   0.611   2.713   3.095
 1614SOL     OW 4927   0.068   2.906   4.677
 1614SOL    HW1 4928   0.061   2.821   4.635
 1614SOL    HW2 4929   0.094   2.966   4.606
 1615SOL     OW 4930   1.062   4.971   2.823
 1615SOL    HW1 4931   1.112   5.052   2.824
 1615SOL    HW2 4932   1.022   4.969   2.736
 1616SOL     OW 4933   2.344   2.989   2.652
 1616SOL    HW1 4934   2.377   2.944   2.575
 1616SOL    HW2 4935   2.377   2.938   2.726
 1617SOL     OW 4936   2.219   4.666   2.968
 1617SOL    HW1 4937   2.303   4.671   2.923
 1617SOL    HW2 4938   2.214   4.576   3.000
 1618SOL     OW 4939   1.398   3.745   4.388
 1618SOL    HW1 4940   1.435   3.794   4.461
 1618SOL    HW2 4941   1.415   3.653   4.410
 1619SOL     OW 4942   2.340   3.184   3.852
 1619SOL    HW1 4943   2.375   3.097   3.835
 1619SOL    HW2 4944   2.257   3.187   3.805
 1620SOL     OW 4945   1.332   2.563   2.674
 1620SOL    HW1 4946   1.364   2.569   2.763
 1620SOL    HW2 4947   1.389   2.498   2.632
 1621SOL     OW 4948   0.609   3.505   4.247
 1621SOL    HW1 4949   0.671   3.552   4.191
 1621SOL    HW2 4950   0.524   3.518   4.204
 1622SOL     OW 4951   2.050   4.419   4.782
 1622SOL    HW1 4952   2.034   4.427   4.876
 1622SOL    HW2 4953   2.098   4.337   4.772
 1623SOL     OW 4954   1.621   3.736   2.850
 1623SOL    HW1 4955   1.538   3.779   2.830
 1623SOL    HW2 4956   1.684   3.776   2.790
 1624SOL     OW 4957   0.426   3.042   4.430
 1624SOL    HW1 4958   0.428   3.023   4.336
 1624SOL    HW2 4959   0.456   2.961   4.472
 1625SOL     OW 4960   2.101   3.328   4.024
 1625SOL    HW1 4961   2.009   3.326   4.049
 1625SOL    HW2 4962   2.143   3.263   4.081
 1626SOL     OW 4963   1.111   3.596   3.947
 1626SOL    HW1 4964   1.190   3.648   3.962
 1626SOL    HW2 4965   1.133   3.509   3.980
 1627SOL     OW 4966   2.333   3.787   3.725
 1627SOL    HW1 4967   2.424   3.805   3.704
 1627SOL    HW2 4968   2.286   3.867   3.703
 1628SOL     OW 4969   2.442   4.140   3.939
 1628SOL    HW1 4970   2.373   4.132   3.873
 1628SOL    HW2 4971   2.394   4.163   4.019
 1629SOL     OW 4972   2.085   4.220   4.337
 1629SOL    HW1 4973   2.112   4.158   4.404
 1629SOL    HW2 4974   1.989   4.213   4.334
 1630SOL     OW 4975   0.902   3.992   2.519
 1630SOL    HW1 4976   0.942   3.913   2.556
 1630SOL    HW2 4977   0.959   4.014   2.445
 1631SOL     OW 4978   1.927   2.758   3.643
 1631SOL    HW1 4979   1.910   2.777   3.736
 1631SOL    HW2 4980   1.931   2.662   3.639
 1632SOL     OW 4981   1.932   4.349   3.483
 1632SOL    HW1 4982   1.904   4.376   3.396
 1632SOL    HW2 4983   1.900   4.260   3.493
 1633SOL     OW 4984   0.614   2.847   3.624
 1633SOL    HW1 4985   0.576   2.759   3.622
 1633SOL    HW2 4986   0.541   2.904   3.647
 1634SOL     OW 4987   0.178   4.689   3.684
 1634SOL    HW1 4988   0.112   4.712   3.619
 1634SOL    HW2 4989   0.235   4.626   3.641
 1635SOL     OW 4990   0.511   2.960   3.215
 1635SOL    HW1 4991   0.587   2.902   3.213
 1635SOL    HW2 4992   0.539   3.034   3.268
 1636SOL     OW 4993   1.434   3.653   4.866
 1636SOL    HW1 4994   1.379   3.596   4.920
 1636SOL    HW2 4995   1.512   3.600   4.847
 1637SOL     OW 4996   2.417   4.668   4.201
 1637SOL    HW1 4997   2.323   4.679   4.193
 1637SOL    HW2 4998   2.452   4.687   4.114
 1638SOL     OW 4999   1.038   3.654   2.508
 1638SOL    HW1 5000   1.049   3.644   2.413
 1638SOL    HW2 5001   0.946   3.633   2.524
 1639SOL     OW 5002   2.061   3.354   3.692
 1639SOL    HW1 5003   2.130   3.407   3.652
 1639SOL    HW2 5004   2.086   3.349   3.785
 1640SOL     OW 5005   2.373   4.803   2.702
 1640SOL    HW1 5006   2.320   4.867   2.750
 1640SOL    HW2 5007   2.439   4.774   2.764
 1641SOL     OW 5008   1.723   2.509   2.490
 1641SOL    HW1 5009   1.631   2.486   2.485
 1641SOL    HW2 5010   1.755   2.463   2.568
 1642SOL     OW 5011   1.756   2.735   2.639
 1642SOL    HW1 5012   1.820   2.757   2.707
 1642SOL    HW2 5013   1.779   2.647   2.611
 1643SOL     OW 5014   1.945   4.227   2.753
 1643SOL    HW1 5015   2.013   4.188   2.809
 1643SOL    HW2 5016   1.916   4.155   2.697
 1644SOL     OW 5017   0.601   4.779   3.830
 1644SOL    HW1 5018   0.627   4.766   3.738
 1644SOL    HW2 5019   0.513   4.817   3.824
 1645SOL     OW 5020   1.174   3.100   3.343
 1645SOL    HW1 5021   1.152   3.133   3.256
 1645SOL    HW2 5022   1.119   3.022   3.354
 1646SOL     OW 5023   0.339   4.077   2.507
 1646SOL    HW1 5024   0.248   4.098   2.485
 1646SOL    HW2 5025   0.377   4.046   2.425
 1647SOL     OW 5026   1.319   3.394   3.888
 1647SOL    HW1 5027   1.366   3.323   3.932
 1647SOL    HW2 5028   1.368   3.473   3.912
 1648SOL     OW 5029   2.077   2.955   2.590
 1648SOL    HW1 5030   2.089   2.939   2.496
 1648SOL    HW2 5031   2.160   2.993   2.618
 1649SOL     OW 5032   0.589   3.455   4.877
 1649SOL    HW1 5033   0.500   3.489   4.864
 1649SOL    HW2 5034   0.578   3.361   4.889
 1650SOL     OW 5035   0.088   3.888   3.944
 1650SOL    HW1 5036   0.022   3.867   4.010
 1650SOL    HW2 5037   0.063   3.975   3.912
 1651SOL     OW 5038   0.052   4.712   2.891
 1651SOL    HW1 5039   0.147   4.721   2.894
 1651SOL    HW2 5040   0.030   4.665   2.972
 1652SOL     OW 5041   0.309   3.206   4.173
 1652SOL    HW1 5042   0.216   3.189   4.160
 1652SOL    HW2 5043   0.349   3.187   4.088
 1653SOL     OW 5044   2.010   2.969   3.881
 1653SOL    HW1 5045   2.019   2.963   3.786
 1653SOL    HW2 5046   1.960   2.891   3.905
 1654SOL     OW 5047   0.016   3.077   2.918
 1654SOL    HW1 5048   0.063   3.005   2.960
 1654SOL    HW2 5049   0.078   3.112   2.854
 1655SOL     OW 5050   0.053   3.372   3.474
 1655SOL    HW1 5051  -0.025   3.323   3.447
 1655SOL    HW2 5052   0.047   3.454   3.425
 1656SOL     OW 5053   2.055   3.487   2.585
 1656SOL    HW1 5054   2.139   3.490   2.630
 1656SOL    HW2 5055   2.006   3.417   2.628
 1657SOL     OW 5056   0.505   3.507   2.845
 1657SOL    HW1 5057   0.462   3.590   2.823
 1657SOL    HW2 5058   0.450   3.440   2.804
 1658SOL     OW 5059   1.050   3.366   4.180
 1658SOL    HW1 5060   1.130   3.419   4.186
 1658SOL    HW2 5061   0.988   3.410   4.237
 1659SOL     OW 5062   0.341   3.473   4.150
 1659SOL    HW1 5063   0.268   3.520   4.111
 1659SOL    HW2 5064   0.347   3.392   4.100
 1660SOL     OW 5065   1.475   4.623   4.088
 1660SOL    HW1 5066   1.390   4.607   4.048
 1660SOL    HW2 5067   1.533   4.640   4.014
 1661SOL     OW 5068   0.152   2.585   3.887
 1661SOL    HW1 5069   0.165   2.580   3.792
 1661SOL    HW2 5070   0.228   2.633   3.919
 1662SOL     OW 5071   0.051   4.884   4.603
 1662SOL    HW1 5072   0.005   4.820   4.658
 1662SOL    HW2 5073   0.025   4.863   4.514
 1663SOL     OW 5074   2.417   4.681   4.759
 1663SOL    HW1 5075   2.327   4.709   4.775
 1663SOL    HW2 5076   2.456   4.672   4.846
 1664SOL     OW 5077   0.269   3.355   4.658
 1664SOL    HW1 5078   0.294   3.447   4.673
 1664SOL    HW2 5079   0.293   3.338   4.567
 1665SOL     OW 5080   1.677   3.877   3.097
 1665SOL    HW1 5081   1.694   3.834   3.013
 1665SOL    HW2 5082   1.691   3.970   3.080
 1666SOL     OW 5083   0.976   3.801   4.081
 1666SOL    HW1 5084   1.033   3.837   4.148
 1666SOL    HW2 5085   1.017   3.719   4.055
 1667SOL     OW 5086   0.847   2.726   3.502
 1667SOL    HW1 5087   0.904   2.687   3.568
 1667SOL    HW2 5088   0.767   2.749   3.550
 1668SOL     OW 5089   2.041   3.995   4.724
 1668SOL    HW1 5090   2.075   3.919   4.772
 1668SOL    HW2 5091   2.108   4.013   4.658
 1669SOL     OW 5092   2.327   3.476   3.963
 1669SOL    HW1 5093   2.248   3.444   4.007
 1669SOL    HW2 5094   2.338   3.418   3.888
 1670SOL     OW 5095   1.479   4.844   2.509
 1670SOL    HW1 5096   1.457   4.852   2.416
 1670SOL    HW2 5097   1.398   4.816   2.551
 1671SOL     OW 5098   2.085   3.758   4.433
 1671SOL    HW1 5099   2.133   3.693   4.382
 1671SOL    HW2 5100   2.065   3.714   4.516
 1672SOL     OW 5101   0.022   3.337   4.823
 1672SOL    HW1 5102   0.093   3.282   4.790
 1672SOL    HW2 5103  -0.036   3.348   4.748
 1673SOL     OW 5104   0.695   3.168   3.508
 1673SOL    HW1 5105   0.752   3.092   3.495
 1673SOL    HW2 5106   0.721   3.204   3.593
 1674SOL     OW 5107   0.075   3.704   2.559
 1674SOL    HW1 5108   0.052   3.691   2.467
 1674SOL    HW2 5109   0.163   3.741   2.557
 1675SOL     OW 5110   2.192   3.006   4.448
 1675SOL    HW1 5111   2.152   3.000   4.361
 1675SOL    HW2 5112   2.177   2.920   4.487
 1676SOL     OW 5113   2.168   4.463   4.343
 1676SOL    HW1 5114   2.134   4.374   4.343
 1676SOL    HW2 5115   2.214   4.472   4.259
 1677SOL     OW 5116   0.017   2.669   4.544
 1677SOL    HW1 5117   0.031   2.581   4.580
 1677SOL    HW2 5118   0.005   2.655   4.450
 1678SOL     OW 5119   2.225   3.904   3.138
 1678SOL    HW1 5120   2.252   3.871   3.224
 1678SOL    HW2 5121   2.135   3.935   3.151
 1679SOL     OW 5122   0.774   4.163   4.116
 1679SOL    HW1 5123   0.838   4.158   4.187
 1679SOL    HW2 5124   0.731   4.248   4.128
 1680SOL     OW 5125   1.611   4.680   3.834
 1680SOL    HW1 5126   1.627   4.768   3.801
 1680SOL    HW2 5127   1.696   4.651   3.869
 1681SOL     OW 5128   0.666   3.186   3.008
 1681SOL    HW1 5129   0.716   3.267   3.012
 1681SOL    HW2 5130   0.645   3.166   3.099
 1682SOL     OW 5131   2.206   4.939   2.906
 1682SOL    HW1 5132   2.149   4.996   2.957
 1682SOL    HW2 5133   2.165   4.853   2.912
 1683SOL     OW 5134   0.127   2.490   2.768
 1683SOL    HW1 5135   0.124   2.497   2.672
 1683SOL    HW2 5136   0.215   2.455   2.786
 1684SOL     OW 5137   0.267   3.216   3.463
 1684SOL    HW1 5138   0.194   3.278   3.469
 1684SOL    HW2 5139   0.321   3.249   3.391
 1685SOL     OW 5140   1.116   2.822   2.876
 1685SOL    HW1 5141   1.192   2.826   2.819
 1685SOL    HW2 5142   1.041   2.819   2.816
 1686SOL     OW 5143   2.397   4.221   3.363
 1686SOL    HW1 5144   2.396   4.207   3.268
 1686SOL    HW2 5145   2.355   4.307   3.374
 1687SOL     OW 5146   0.366   4.532   3.592
 1687SOL    HW1 5147   0.415   4.459   3.553
 1687SOL    HW2 5148   0.372   4.516   3.686
 1688SOL     OW 5149   2.476   3.245   3.135
 1688SOL    HW1 5150   2.503   3.329   3.097
 1688SOL    HW2 5151   2.498   3.180   3.068
 1689SOL     OW 5152   0.338   4.597   4.715
 1689SOL    HW1 5153   0.275   4.536   4.754
 1689SOL    HW2 5154   0.416   4.589   4.770
 1690SOL     OW 5155   0.102   3.605   3.973
 1690SOL    HW1 5156   0.108   3.697   3.947
 1690SOL    HW2 5157   0.009   3.586   3.973
 1691SOL     OW 5158   0.826   4.634   4.797
 1691SOL    HW1 5159   0.889   4.570   4.831
 1691SOL    HW2 5160   0.841   4.634   4.702
 1692SOL     OW 5161   0.671   4.429   3.742
 1692SOL    HW1 5162   0.594   4.380   3.771
 1692SOL    HW2 5163   0.673   4.506   3.799
 1693SOL     OW 5164   0.120   2.958   3.549
 1693SOL    HW1 5165   0.091   3.000   3.469
 1693SOL    HW2 5166   0.041   2.945   3.600
 1694SOL     OW 5167   0.667   3.463   4.555
 1694SOL    HW1 5168   0.693   3.386   4.604
 1694SOL    HW2 5169   0.599   3.432   4.495
 1695SOL     OW 5170   0.079   4.703   3.421
 1695SOL    HW1 5171   0.007   4.656   3.379
 1695SOL    HW2 5172   0.158   4.674   3.375
 1696SOL     OW 5173   1.481   3.589   3.748
 1696SOL    HW1 5174   1.458   3.509   3.702
 1696SOL    HW2 5175   1.399   3.639   3.751
 1697SOL     OW 5176   0.448   3.777   2.827
 1697SOL    HW1 5177   0.539   3.782   2.855
 1697SOL    HW2 5178   0.408   3.857   2.863
 1698SOL     OW 5179   2.392   4.133   3.101
 1698SOL    HW1 5180   2.473   4.090   3.074
 1698SOL    HW2 5181   2.329   4.061   3.112
 1699SOL     OW 5182   1.915   3.489   4.847
 1699SOL    HW1 5183   1.982   3.483   4.915
 1699SOL    HW2 5184   1.892   3.398   4.827
 1700SOL     OW 5185   1.071   4.657   4.269
 1700SOL    HW1 5186   1.028   4.743   4.270
 1700SOL    HW2 5187   1.002   4.596   4.293
 1701SOL     OW 5188   1.412   3.068   4.335
 1701SOL    HW1 5189   1.363   2.993   4.302
 1701SOL    HW2 5190   1.364   3.097   4.412
 1702SOL     OW 5191   1.804   3.220   3.263
 1702SOL    HW1 5192   1.747   3.235   3.339
 1702SOL    HW2 5193   1.770   3.140   3.224
 1703SOL     OW 5194   0.369   3.622   4.835
 1703SOL    HW1 5195   0.296   3.657   4.784
 1703SOL    HW2 5196   0.363   3.667   4.919
 1704SOL     OW 5197   0.042   2.598   4.136
 1704SOL    HW1 5198   0.114   2.656   4.158
 1704SOL    HW2 5199   0.058   2.573   4.045
 1705SOL     OW 5200   0.930   3.117   3.640
 1705SOL    HW1 5201   0.931   3.175   3.716
 1705SOL    HW2 5202   1.016   3.074   3.642
 1706SOL     OW 5203   0.559   2.899   4.932
 1706SOL    HW1 5204   0.497   2.957   4.976
 1706SOL    HW2 5205   0.515   2.875   4.851
 1707SOL     OW 5206   0.627   4.951   4.048
 1707SOL    HW1 5207   0.658   5.009   3.979
 1707SOL    HW2 5208   0.627   4.864   4.008
 1708SOL     OW 5209   1.306   3.726   3.381
 1708SOL    HW1 5210   1.398   3.741   3.358
 1708SOL    HW2 5211   1.257   3.763   3.307
 1709SOL     OW 5212   1.288   4.252   2.931
 1709SOL    HW1 5213   1.306   4.339   2.897
 1709SOL    HW2 5214   1.206   4.226   2.889
 1710SOL     OW 5215   1.525   3.463   4.122
 1710SOL    HW1 5216   1.546   3.460   4.215
 1710SOL    HW2 5217   1.534   3.372   4.092
 1711SOL     OW 5218   0.241   3.843   4.248
 1711SOL    HW1 5219   0.207   3.756   4.268
 1711SOL    HW2 5220   0.184   3.875   4.178
 1712SOL     OW 5221   1.047   4.039   3.961
 1712SOL    HW1 5222   1.009   3.951   3.952
 1712SOL    HW2 5223   0.986   4.096   3.914
 1713SOL     OW 5224   1.464   4.182   3.118
 1713SOL    HW1 5225   1.413   4.205   3.040
 1713SOL    HW2 5226   1.398   4.152   3.180
 1714SOL     OW 5227   0.797   2.670   4.721
 1714SOL    HW1 5228   0.809   2.610   4.648
 1714SOL    HW2 5229   0.884   2.705   4.738
 1715SOL     OW 5230   1.685   4.458   4.395
 1715SOL    HW1 5231   1.701   4.552   4.408
 1715SOL    HW2 5232   1.638   4.431   4.474
 1716SOL     OW 5233   1.564   3.756   3.330
 1716SOL    HW1 5234   1.637   3.749   3.392
 1716SOL    HW2 5235   1.601   3.804   3.255
 1717SOL     OW 5236   0.639   4.253   2.930
 1717SOL    HW1 5237   0.704   4.311   2.890
 1717SOL    HW2 5238   0.659   4.255   3.024
 1718SOL     OW 5239   1.892   3.340   4.494
 1718SOL    HW1 5240   1.809   3.301   4.522
 1718SOL    HW2 5241   1.959   3.282   4.530
 1719SOL     OW 5242   0.603   3.553   3.117
 1719SOL    HW1 5243   0.576   3.538   3.027
 1719SOL    HW2 5244   0.698   3.542   3.116
 1720SOL     OW 5245   0.781   4.691   4.516
 1720SOL    HW1 5246   0.769   4.607   4.472
 1720SOL    HW2 5247   0.697   4.709   4.557
 1721SOL     OW 5248   1.137   4.758   2.581
 1721SOL    HW1 5249   1.145   4.679   2.528
 1721SOL    HW2 5250   1.078   4.815   2.531
 1722SOL     OW 5251   0.417   3.190   2.921
 1722SOL    HW1 5252   0.499   3.187   2.972
 1722SOL    HW2 5253   0.445   3.211   2.832
 1723SOL     OW 5254   0.990   4.605   2.958
 1723SOL    HW1 5255   1.020   4.593   3.048
 1723SOL    HW2 5256   1.044   4.677   2.925
 1724SOL     OW 5257   2.263   2.606   3.417
 1724SOL    HW1 5258   2.228   2.692   3.440
 1724SOL    HW2 5259   2.334   2.624   3.355
 1725SOL     OW 5260   0.682   2.587   2.782
 1725SOL    HW1 5261   0.725   2.622   2.705
 1725SOL    HW2 5262   0.671   2.662   2.840
 1726SOL     OW 5263   0.680   4.034   4.440
 1726SOL    HW1 5264   0.633   3.951   4.431
 1726SOL    HW2 5265   0.636   4.079   4.512
 1727SOL     OW 5266   2.403   3.262   2.588
 1727SOL    HW1 5267   2.389   3.170   2.569
 1727SOL    HW2 5268   2.437   3.299   2.506
 1728SOL     OW 5269   1.846   2.577   2.923
 1728SOL    HW1 5270   1.901   2.498   2.925
 1728SOL    HW2 5271   1.902   2.644   2.885
 1729SOL     OW 5272   1.712   4.913   3.268
 1729SOL    HW1 5273   1.773   4.978   3.302
 1729SOL    HW2 5274   1.689   4.860   3.345
 1730SOL     OW 5275   1.742   2.960   4.730
 1730SOL    HW1 5276   1.803   2.887   4.740
 1730SOL    HW2 5277   1.662   2.930   4.773
 1731SOL     OW 5278   0.016   3.040   3.310
 1731SOL    HW1 5279   0.046   3.112   3.255
 1731SOL    HW2 5280   0.031   2.961   3.257
 1732SOL     OW 5281   1.756   4.175   3.024
 1732SOL    HW1 5282   1.745   4.225   2.943
 1732SOL    HW2 5283   1.676   4.193   3.074
 1733SOL     OW 5284   2.250   2.626   2.655
 1733SOL    HW1 5285   2.319   2.651   2.716
 1733SOL    HW2 5286   2.183   2.586   2.710
 1734SOL     OW 5287   1.407   3.176   4.042
 1734SOL    HW1 5288   1.381   3.108   4.103
 1734SOL    HW2 5289   1.405   3.134   3.956
 1735SOL     OW 5290   1.390   4.214   4.200
 1735SOL    HW1 5291   1.404   4.301   4.239
 1735SOL    HW2 5292   1.337   4.232   4.122
 1736SOL     OW 5293   1.886   2.686   3.299
 1736SOL    HW1 5294   1.842   2.771   3.309
 1736SOL    HW2 5295   1.907   2.659   3.388
 1737SOL     OW 5296   2.079   3.611   3.331
 1737SOL    HW1 5297   2.060   3.519   3.315
 1737SOL    HW2 5298   2.173   3.619   3.320
 1738SOL     OW 5299   0.129   2.976   4.038
 1738SOL    HW1 5300   0.190   3.031   3.990
 1738SOL    HW2 5301   0.097   2.912   3.974
 1739SOL     OW 5302   0.625   4.096   3.389
 1739SOL    HW1 5303   0.689   4.151   3.434
 1739SOL    HW2 5304   0.606   4.025   3.451
 1740SOL     OW 5305   1.403   3.055   3.790
 1740SOL    HW1 5306   1.485   3.054   3.740
 1740SOL    HW2 5307   1.334   3.044   3.724
 1741SOL     OW 5308   1.107   4.135   2.684
 1741SOL    HW1 5309   1.135   4.059   2.634
 1741SOL    HW2 5310   1.047   4.100   2.750
 1742SOL     OW 5311   0.205   3.728   4.603
 1742SOL    HW1 5312   0.259   3.795   4.645
 1742SOL    HW2 5313   0.245   3.717   4.516
 1743SOL     OW 5314   1.711   4.760   2.656
 1743SOL    HW1 5315   1.757   4.683   2.691
 1743SOL    HW2 5316   1.629   4.726   2.622
 1744SOL     OW 5317   0.731   2.634   3.819
 1744SOL    HW1 5318   0.717   2.722   3.854
 1744SOL    HW2 5319   0.660   2.621   3.756
 1745SOL     OW 5320   1.413   2.878   2.850
 1745SOL    HW1 5321   1.437   2.958   2.895
 1745SOL    HW2 5322   1.478   2.869   2.780
 1746SOL     OW 5323   0.050   4.879   4.317
 1746SOL    HW1 5324   0.023   4.944   4.252
 1746SOL    HW2 5325   0.010   4.797   4.288
 1747SOL     OW 5326   1.374   3.661   4.043
 1747SOL    HW1 5327   1.445   3.600   4.063
 1747SOL    HW2 5328   1.417   3.735   4.001
 1748SOL     OW 5329   2.036   4.215   3.993
 1748SOL    HW1 5330   1.984   4.135   3.987
 1748SOL    HW2 5331   2.015   4.264   3.914
 1749SOL     OW 5332   1.036   4.148   4.754
 1749SOL    HW1 5333   1.006   4.070   4.706
 1749SOL    HW2 5334   1.129   4.154   4.735
 1750SOL     OW 5335   1.655   3.047   3.686
 1750SOL    HW1 5336   1.735   3.072   3.732
 1750SOL    HW2 5337   1.627   3.125   3.640
 1751SOL     OW 5338   1.613   3.349   2.630
 1751SOL    HW1 5339   1.586   3.390   2.548
 1751SOL    HW2 5340   1.587   3.411   2.698
 1752SOL     OW 5341   0.681   4.384   3.231
 1752SOL    HW1 5342   0.776   4.378   3.227
 1752SOL    HW2 5343   0.658   4.450   3.166
 1753SOL     OW 5344   1.392   4.876   3.357
 1753SOL    HW1 5345   1.300   4.901   3.360
 1753SOL    HW2 5346   1.421   4.902   3.270
 1754SOL     OW 5347   0.554   4.884   4.529
 1754SOL    HW1 5348   0.572   4.931   4.447
 1754SOL    HW2 5349   0.477   4.831   4.511
 1755SOL     OW 5350   2.316   4.814   3.191
 1755SOL    HW1 5351   2.280   4.841   3.107
 1755SOL    HW2 5352   2.244   4.768   3.234
 1756SOL     OW 5353   2.261   4.130   4.152
 1756SOL    HW1 5354   2.201   4.162   4.084
 1756SOL    HW2 5355   2.222   4.160   4.234
 1757SOL     OW 5356   0.018   4.319   3.612
 1757SOL    HW1 5357  -0.017   4.349   3.528
 1757SOL    HW2 5358   0.087   4.258   3.589
 1758SOL     OW 5359   1.474   4.449   3.759
 1758SOL    HW1 5360   1.536   4.518   3.782
 1758SOL    HW2 5361   1.389   4.492   3.760
 1759SOL     OW 5362   0.730   2.717   2.535
 1759SOL    HW1 5363   0.652   2.771   2.520
 1759SOL    HW2 5364   0.761   2.695   2.447
 1760SOL     OW 5365   0.349   4.862   3.811
 1760SOL    HW1 5366   0.332   4.947   3.771
 1760SOL    HW2 5367   0.298   4.800   3.759
 1761SOL     OW 5368   1.093   2.829   3.776
 1761SOL    HW1 5369   1.076   2.745   3.733
 1761SOL    HW2 5370   1.137   2.882   3.710
 1762SOL     OW 5371   2.189   3.755   3.951
 1762SOL    HW1 5372   2.238   3.754   3.868
 1762SOL    HW2 5373   2.236   3.694   4.007
 1763SOL     OW 5374   0.413   3.312   4.434
 1763SOL    HW1 5375   0.427   3.218   4.437
 1763SOL    HW2 5376   0.380   3.328   4.345
 1764SOL     OW 5377   0.260   3.791   3.426
 1764SOL    HW1 5378   0.351   3.762   3.421
 1764SOL    HW2 5379   0.242   3.829   3.339
 1765SOL     OW 5380   1.770   4.582   3.611
 1765SOL    HW1 5381   1.693   4.569   3.556
 1765SOL    HW2 5382   1.801   4.493   3.630
 1766SOL     OW 5383   1.032   2.796   3.132
 1766SOL    HW1 5384   1.095   2.812   3.062
 1766SOL    HW2 5385   0.948   2.824   3.097
 1767SOL     OW 5386   0.289   2.882   4.847
 1767SOL    HW1 5387   0.212   2.909   4.799
 1767SOL    HW2 5388   0.300   2.789   4.826
 1768SOL     OW 5389   1.365   4.646   4.534
 1768SOL    HW1 5390   1.291   4.646   4.595
 1768SOL    HW2 5391   1.441   4.626   4.588
 1769SOL     OW 5392   1.140   4.395   4.368
 1769SOL    HW1 5393   1.228   4.420   4.341
 1769SOL    HW2 5394   1.106   4.344   4.294
 1770SOL     OW 5395   1.444   3.095   3.303
 1770SOL    HW1 5396   1.349   3.103   3.316
 1770SOL    HW2 5397   1.482   3.127   3.385
 1771SOL     OW 5398   1.645   4.091   4.161
 1771SOL    HW1 5399   1.569   4.144   4.138
 1771SOL    HW2 5400   1.610   4.003   4.173
 1772SOL     OW 5401   2.212   4.925   4.229
 1772SOL    HW1 5402   2.208   4.906   4.322
 1772SOL    HW2 5403   2.246   5.014   4.223
 1773SOL     OW 5404   1.741   2.658   4.730
 1773SOL    HW1 5405   1.738   2.614   4.815
 1773SOL    HW2 5406   1.683   2.605   4.674
 1774SOL     OW 5407   0.329   4.505   3.856
 1774SOL    HW1 5408   0.308   4.451   3.933
 1774SOL    HW2 5409   0.290   4.590   3.876
 1775SOL     OW 5410   0.056   4.155   2.498
 1775SOL    HW1 5411   0.095   4.238   2.471
 1775SOL    HW2 5412  -0.038   4.168   2.488
 1776SOL     OW 5413   0.668   2.712   3.270
 1776SOL    HW1 5414   0.640   2.620   3.274
 1776SOL    HW2 5415   0.731   2.721   3.342
 1777SOL     OW 5416   1.580   4.475   4.657
 1777SOL    HW1 5417   1.504   4.425   4.686
 1777SOL    HW2 5418   1.638   4.476   4.733
 1778SOL     OW 5419   2.075   2.536   3.136
 1778SOL    HW1 5420   1.999   2.592   3.154
 1778SOL    HW2 5421   2.132   2.549   3.212
 1779SOL     OW 5422   0.646   3.832   2.535
 1779SOL    HW1 5423   0.621   3.901   2.597
 1779SOL    HW2 5424   0.633   3.872   2.449
 1780SOL     OW 5425   2.314   2.870   4.081
 1780SOL    HW1 5426   2.375   2.797   4.081
 1780SOL    HW2 5427   2.230   2.830   4.059
 1781SOL     OW 5428   0.098   3.616   4.296
 1781SOL    HW1 5429   0.025   3.578   4.344
 1781SOL    HW2 5430   0.112   3.555   4.223
 1782SOL     OW 5431   1.589   3.073   2.613
 1782SOL    HW1 5432   1.593   3.169   2.612
 1782SOL    HW2 5433   1.670   3.046   2.656
 1783SOL     OW 5434   0.487   4.889   3.338
 1783SOL    HW1 5435   0.542   4.889   3.259
 1783SOL    HW2 5436   0.407   4.934   3.311
 1784SOL     OW 5437   2.374   4.473   3.806
 1784SOL    HW1 5438   2.440   4.441   3.744
 1784SOL    HW2 5439   2.294   4.477   3.754
 1785SOL     OW 5440   1.537   2.703   4.175
 1785SOL    HW1 5441   1.543   2.791   4.140
 1785SOL    HW2 5442   1.480   2.711   4.252
 1786SOL     OW 5443   2.154   3.110   3.631
 1786SOL    HW1 5444   2.112   3.194   3.618
 1786SOL    HW2 5445   2.213   3.100   3.556
 1787SOL     OW 5446   0.852   3.604   3.044
 1787SOL    HW1 5447   0.895   3.526   3.010
 1787SOL    HW2 5448   0.918   3.645   3.101
 1788SOL     OW 5449   2.065   3.768   4.885
 1788SOL    HW1 5450   2.074   3.689   4.938
 1788SOL    HW2 5451   2.144   3.818   4.903
 1789SOL     OW 5452   2.475   4.145   2.777
 1789SOL    HW1 5453   2.443   4.055   2.786
 1789SOL    HW2 5454   2.516   4.148   2.690
 1790SOL     OW 5455   0.486   4.357   3.430
 1790SOL    HW1 5456   0.537   4.383   3.353
 1790SOL    HW2 5457   0.540   4.289   3.471
 1791SOL     OW 5458   1.395   4.908   4.734
 1791SOL    HW1 5459   1.406   4.999   4.705
 1791SOL    HW2 5460   1.300   4.897   4.741
 1792SOL     OW 5461   0.233   4.448   3.304
 1792SOL    HW1 5462   0.295   4.456   3.377
 1792SOL    HW2 5463   0.219   4.354   3.294
 1793SOL     OW 5464   0.692   3.748   4.061
 1793SOL    HW1 5465   0.649   3.834   4.068
 1793SOL    HW2 5466   0.785   3.769   4.051
 1794SOL     OW 5467   1.146   3.937   3.245
 1794SOL    HW1 5468   1.065   3.948   3.296
 1794SOL    HW2 5469   1.215   3.968   3.304
 1795SOL     OW 5470   1.242   2.985   3.588
 1795SOL    HW1 5471   1.245   2.899   3.545
 1795SOL    HW2 5472   1.241   3.048   3.515
 1796SOL     OW 5473   0.629   4.580   3.045
 1796SOL    HW1 5474   0.703   4.629   3.009
 1796SOL    HW2 5475   0.558   4.643   3.050
 1797SOL     OW 5476   1.847   3.314   2.728
 1797SOL    HW1 5477   1.864   3.220   2.727
 1797SOL    HW2 5478   1.771   3.325   2.670
 1798SOL     OW 5479   0.551   2.526   4.821
 1798SOL    HW1 5480   0.541   2.446   4.769
 1798SOL    HW2 5481   0.629   2.568   4.785
 1799SOL     OW 5482   0.519   3.835   4.355
 1799SOL    HW1 5483   0.442   3.877   4.317
 1799SOL    HW2 5484   0.488   3.747   4.379
 1800SOL     OW 5485   0.034   3.255   4.051
 1800SOL    HW1 5486  -0.049   3.217   4.022
 1800SOL    HW2 5487   0.064   3.307   3.976
 1801SOL     OW 5488   1.711   3.767   3.563
 1801SOL    HW1 5489   1.728   3.695   3.624
 1801SOL    HW2 5490   1.798   3.793   3.533
 1802SOL     OW 5491   2.388   3.903   2.707
 1802SOL    HW1 5492   2.439   3.823   2.700
 1802SOL    HW2 5493   2.343   3.911   2.623
 1803SOL     OW 5494   1.154   2.549   3.162
 1803SOL    HW1 5495   1.110   2.634   3.160
 1803SOL    HW2 5496   1.242   2.567   3.127
 1804SOL     OW 5497   0.190   2.501   2.501
 1804SOL    HW1 5498   0.267   2.552   2.526
 1804SOL    HW2 5499   0.207   2.476   2.410
 1805SOL     OW 5500   1.308   4.343   3.971
 1805SOL    HW1 5501   1.253   4.419   3.951
 1805SOL    HW2 5502   1.394   4.365   3.936
 1806SOL     OW 5503   1.878   3.682   2.739
 1806SOL    HW1 5504   1.914   3.640   2.660
 1806SOL    HW2 5505   1.808   3.623   2.767
 1807SOL     OW 5506   1.592   3.242   4.535
 1807SOL    HW1 5507   1.626   3.153   4.521
 1807SOL    HW2 5508   1.554   3.239   4.623
 1808SOL     OW 5509   0.893   4.151   4.360
 1808SOL    HW1 5510   0.805   4.115   4.375
 1808SOL    HW2 5511   0.949   4.102   4.420
 1809SOL     OW 5512   0.731   3.235   4.683
 1809SOL    HW1 5513   0.746   3.210   4.775
 1809SOL    HW2 5514   0.659   3.178   4.655
 1810SOL     OW 5515   0.984   3.749   3.575
 1810SOL    HW1 5516   1.036   3.736   3.496
 1810SOL    HW2 5517   0.908   3.798   3.545
 1811SOL     OW 5518   1.588   2.931   4.039
 1811SOL    HW1 5519   1.556   2.967   3.956
 1811SOL    HW2 5520   1.605   3.008   4.093
 1812SOL     OW 5521   0.096   3.296   3.757
 1812SOL    HW1 5522   0.102   3.329   3.668
 1812SOL    HW2 5523   0.005   3.268   3.766
 1813SOL     OW 5524   1.828   3.032   2.736
 1813SOL    HW1 5525   1.907   3.009   2.687
 1813SOL    HW2 5526   1.850   3.013   2.827
 1814SOL     OW 5527   1.372   4.490   4.318
 1814SOL    HW1 5528   1.360   4.539   4.399
 1814SOL    HW2 5529   1.431   4.544   4.265
 1815SOL     OW 5530   0.385   4.552   2.928
 1815SOL    HW1 5531   0.476   4.529   2.946
 1815SOL    HW2 5532   0.335   4.475   2.956
 1816SOL     OW 5533   0.839   4.178   3.845
 1816SOL    HW1 5534   0.764   4.213   3.797
 1816SOL    HW2 5535   0.805   4.161   3.933
 1817SOL     OW 5536   1.209   4.606   4.024
 1817SOL    HW1 5537   1.160   4.603   3.942
 1817SOL    HW2 5538   1.142   4.603   4.093
 1818SOL     OW 5539   2.347   4.490   3.425
 1818SOL    HW1 5540   2.300   4.553   3.370
 1818SOL    HW2 5541   2.302   4.494   3.510
 1819SOL     OW 5542   0.557   4.619   4.881
 1819SOL    HW1 5543   0.645   4.657   4.877
 1819SOL    HW2 5544   0.562   4.554   4.952
 1820SOL     OW 5545   1.686   3.452   3.111
 1820SOL    HW1 5546   1.744   3.527   3.125
 1820SOL    HW2 5547   1.720   3.384   3.168
 1821SOL     OW 5548   1.286   3.779   3.768
 1821SOL    HW1 5549   1.283   3.854   3.828
 1821SOL    HW2 5550   1.199   3.778   3.727
 1822SOL     OW 5551   0.449   3.520   3.506
 1822SOL    HW1 5552   0.515   3.485   3.566
 1822SOL    HW2 5553   0.395   3.578   3.561
 1823SOL     OW 5554   0.361   3.901   4.717
 1823SOL    HW1 5555   0.453   3.896   4.694
 1823SOL    HW2 5556   0.327   3.974   4.664
 1824SOL     OW 5557   1.855   3.653   3.133
 1824SOL    HW1 5558   1.916   3.656   3.207
 1824SOL    HW2 5559   1.810   3.737   3.136
 1825SOL     OW 5560   1.652   4.039   3.786
 1825SOL    HW1 5561   1.590   3.980   3.744
 1825SOL    HW2 5562   1.708   3.981   3.839
 1826SOL     OW 5563   0.805   4.652   2.709
 1826SOL    HW1 5564   0.744   4.582   2.684
 1826SOL    HW2 5565   0.859   4.614   2.778
 1827SOL     OW 5566   0.216   4.190   3.835
 1827SOL    HW1 5567   0.221   4.197   3.740
 1827SOL    HW2 5568   0.123   4.174   3.852
 1828SOL     OW 5569   0.642   3.532   3.913
 1828SOL    HW1 5570   0.718   3.587   3.897
 1828SOL    HW2 5571   0.593   3.578   3.981
 1829SOL     OW 5572   1.732   3.609   3.813
 1829SOL    HW1 5573   1.639   3.601   3.790
 1829SOL    HW2 5574   1.732   3.623   3.908
 1830SOL     OW 5575   1.223   2.606   4.251
 1830SOL    HW1 5576   1.137   2.615   4.209
 1830SOL    HW2 5577   1.220   2.520   4.292
 1831SOL     OW 5578   0.735   4.594   3.963
 1831SOL    HW1 5579   0.826   4.568   3.945
 1831SOL    HW2 5580   0.727   4.681   3.925
 1832SOL     OW 5581   2.097   4.376   2.562
 1832SOL    HW1 5582   2.181   4.410   2.595
 1832SOL    HW2 5583   2.057   4.333   2.637
 1833SOL     OW 5584   2.274   3.531   2.967
 1833SOL    HW1 5585   2.186   3.494   2.970
 1833SOL    HW2 5586   2.298   3.530   2.874
 1834SOL     OW 5587   2.448   2.721   2.820
 1834SOL    HW1 5588   2.509   2.767   2.878
 1834SOL    HW2 5589   2.487   2.634   2.808
 1835SOL     OW 5590   1.347   3.822   2.762
 1835SOL    HW1 5591   1.291   3.875   2.705
 1835SOL    HW2 5592   1.319   3.845   2.850
 1836SOL     OW 5593   0.367   3.796   3.896
 1836SOL    HW1 5594   0.418   3.836   3.967
 1836SOL    HW2 5595   0.282   3.840   3.901
 1837SOL     OW 5596   0.934   4.399   3.256
 1837SOL    HW1 5597   1.013   4.453   3.263
 1837SOL    HW2 5598   0.913   4.374   3.346
 1838SOL     OW 5599   1.900   4.094   3.388
 1838SOL    HW1 5600   1.924   4.020   3.443
 1838SOL    HW2 5601   1.938   4.073   3.302
 1839SOL     OW 5602   0.922   4.036   2.850
 1839SOL    HW1 5603   0.850   3.981   2.880
 1839SOL    HW2 5604   0.958   4.074   2.931
 1840SOL     OW 5605   1.665   2.891   3.237
 1840SOL    HW1 5606   1.632   2.811   3.195
 1840SOL    HW2 5607   1.589   2.949   3.240
 1841SOL     OW 5608   2.300   4.192   4.909
 1841SOL    HW1 5609   2.222   4.228   4.953
 1841SOL    HW2 5610   2.288   4.216   4.817
 1842SOL     OW 5611   0.745   3.408   2.785
 1842SOL    HW1 5612   0.657   3.439   2.803
 1842SOL    HW2 5613   0.777   3.465   2.715
 1843SOL     OW 5614   1.336   4.520   2.915
 1843SOL    HW1 5615   1.324   4.608   2.880
 1843SOL    HW2 5616   1.316   4.528   3.008
 1844SOL     OW 5617   1.110   4.866   3.375
 1844SOL    HW1 5618   1.019   4.895   3.375
 1844SOL    HW2 5619   1.150   4.912   3.301
 1845SOL     OW 5620   0.069   4.917   3.101
 1845SOL    HW1 5621  -0.006   4.875   3.142
 1845SOL    HW2 5622   0.066   4.890   3.010
 1846SOL     OW 5623   0.247   2.525   3.295
 1846SOL    HW1 5624   0.185   2.539   3.367
 1846SOL    HW2 5625   0.195   2.482   3.227
 1847SOL     OW 5626   1.234   2.887   4.275
 1847SOL    HW1 5627   1.200   2.905   4.187
 1847SOL    HW2 5628   1.259   2.795   4.273
 1848SOL     OW 5629   0.500   3.722   3.321
 1848SOL    HW1 5630   0.512   3.664   3.247
 1848SOL    HW2 5631   0.562   3.690   3.387
 1849SOL     OW 5632   1.420   4.148   2.653
 1849SOL    HW1 5633   1.349   4.086   2.638
 1849SOL    HW2 5634   1.402   4.185   2.739
 1850SOL     OW 5635   2.311   4.431   2.708
 1850SOL    HW1 5636   2.326   4.515   2.751
 1850SOL    HW2 5637   2.393   4.383   2.721
 1851SOL     OW 5638   0.136   4.419   4.863
 1851SOL    HW1 5639   0.110   4.485   4.927
 1851SOL    HW2 5640   0.086   4.441   4.785
 1852SOL     OW 5641   0.588   2.562   4.289
 1852SOL    HW1 5642   0.626   2.530   4.207
 1852SOL    HW2 5643   0.494   2.559   4.274
 1853SOL     OW 5644   0.984   4.772   3.703
 1853SOL    HW1 5645   0.945   4.724   3.630
 1853SOL    HW2 5646   1.072   4.792   3.673
 1854SOL     OW 5647   2.468   3.978   3.448
 1854SOL    HW1 5648   2.483   3.982   3.542
 1854SOL    HW2 5649   2.434   4.064   3.425
 1855SOL     OW 5650   0.129   3.102   4.510
 1855SOL    HW1 5651   0.122   3.074   4.418
 1855SOL    HW2 5652   0.217   3.140   4.517
 1856SOL     OW 5653   1.807   3.638   4.095
 1856SOL    HW1 5654   1.898   3.667   4.110
 1856SOL    HW2 5655   1.804   3.551   4.134
 1857SOL     OW 5656   1.547   3.467   2.868
 1857SOL    HW1 5657   1.567   3.560   2.858
 1857SOL    HW2 5658   1.600   3.439   2.942
 1858SOL     OW 5659   0.275   2.582   3.624
 1858SOL    HW1 5660   0.296   2.654   3.564
 1858SOL    HW2 5661   0.198   2.540   3.584
 1859SOL     OW 5662   0.254   3.034   3.091
 1859SOL    HW1 5663   0.318   3.016   3.160
 1859SOL    HW2 5664   0.291   3.109   3.043
 1860SOL     OW 5665   0.402   3.334   2.683
 1860SOL    HW1 5666   0.454   3.291   2.615
 1860SOL    HW2 5667   0.329   3.373   2.635
 1861SOL     OW 5668   1.273   3.496   4.227
 1861SOL    HW1 5669   1.359   3.467   4.258
 1861SOL    HW2 5670   1.293   3.558   4.157
 1862SOL     OW 5671   2.006   2.748   2.794
 1862SOL    HW1 5672   2.043   2.766   2.708
 1862SOL    HW2 5673   1.986   2.834   2.831
 1863SOL     OW 5674   1.009   4.148   3.083
 1863SOL    HW1 5675   0.964   4.229   3.108
 1863SOL    HW2 5676   1.079   4.139   3.147
 1864SOL     OW 5677   0.991   4.395   3.608
 1864SOL    HW1 5678   0.941   4.472   3.581
 1864SOL    HW2 5679   1.080   4.413   3.577
 1865SOL     OW 5680   0.965   4.423   3.892
 1865SOL    HW1 5681   0.918   4.342   3.913
 1865SOL    HW2 5682   0.986   4.415   3.799
 1866SOL     OW 5683   0.412   3.949   3.660
 1866SOL    HW1 5684   0.359   3.879   3.699
 1866SOL    HW2 5685   0.493   3.949   3.711
 1867SOL     OW 5686   1.882   2.642   4.501
 1867SOL    HW1 5687   1.842   2.646   4.588
 1867SOL    HW2 5688   1.829   2.579   4.453
 1868SOL     OW 5689   2.005   4.080   3.111
 1868SOL    HW1 5690   1.914   4.094   3.087
 1868SOL    HW2 5691   2.051   4.072   3.027
 1869SOL     OW 5692   0.740   3.854   3.518
 1869SOL    HW1 5693   0.676   3.845   3.589
 1869SOL    HW2 5694   0.725   3.777   3.463
 1870SOL     OW 5695   2.444   3.748   3.041
 1870SOL    HW1 5696   2.401   3.665   3.019
 1870SOL    HW2 5697   2.373   3.807   3.066
 1871SOL     OW 5698   0.324   3.795   2.574
 1871SOL    HW1 5699   0.385   3.770   2.644
 1871SOL    HW2 5700   0.335   3.890   2.566
 1872SOL     OW 5701   2.049   2.948   4.209
 1872SOL    HW1 5702   1.988   2.877   4.228
 1872SOL    HW2 5703   2.024   2.979   4.121
 1873SOL     OW 5704   0.408   2.814   2.839
 1873SOL    HW1 5705   0.414   2.724   2.809
 1873SOL    HW2 5706   0.484   2.824   2.897
 1874SOL     OW 5707   1.671   4.467   2.880
 1874SOL    HW1 5708   1.691   4.522   2.956
 1874SOL    HW2 5709   1.575   4.472   2.872
 1875SOL     OW 5710   1.140   4.535   4.928
 1875SOL    HW1 5711   1.073   4.475   4.961
 1875SOL    HW2 5712   1.133   4.528   4.833
 1876SOL     OW 5713   1.361   2.673   3.602
 1876SOL    HW1 5714   1.451   2.693   3.627
 1876SOL    HW2 5715   1.354   2.706   3.512
 1877SOL     OW 5716   0.556   2.565   3.579
 1877SOL    HW1 5717   0.486   2.530   3.635
 1877SOL    HW2 5718   0.539   2.526   3.493
 1878SOL     OW 5719   2.199   4.491   4.032
 1878SOL    HW1 5720   2.123   4.455   3.987
 1878SOL    HW2 5721   2.268   4.492   3.965
 1879SOL     OW 5722   2.136   4.837   3.515
 1879SOL    HW1 5723   2.179   4.917   3.485
 1879SOL    HW2 5724   2.161   4.829   3.607
 1880SOL     OW 5725   2.473   3.880   4.426
 1880SOL    HW1 5726   2.548   3.842   4.472
 1880SOL    HW2 5727   2.472   3.836   4.341
 1881SOL     OW 5728   0.861   3.773   4.343
 1881SOL    HW1 5729   0.802   3.842   4.313
 1881SOL    HW2 5730   0.949   3.808   4.325
 1882SOL     OW 5731   0.523   2.823   4.575
 1882SOL    HW1 5732   0.469   2.744   4.573
 1882SOL    HW2 5733   0.591   2.804   4.640
 1883SOL     OW 5734   0.896   3.352   2.999
 1883SOL    HW1 5735   0.863   3.366   2.910
 1883SOL    HW2 5736   0.962   3.284   2.989
 1884SOL     OW 5737   0.650   3.311   3.789
 1884SOL    HW1 5738   0.561   3.291   3.759
 1884SOL    HW2 5739   0.640   3.391   3.840
 1885SOL     OW 5740   0.387   4.184   2.951
 1885SOL    HW1 5741   0.477   4.216   2.946
 1885SOL    HW2 5742   0.387   4.123   3.025
 1886SOL     OW 5743   0.877   3.647   3.795
 1886SOL    HW1 5744   0.954   3.635   3.849
 1886SOL    HW2 5745   0.908   3.696   3.719
 1887SOL     OW 5746   2.094   4.905   3.861
 1887SOL    HW1 5747   2.090   4.889   3.955
 1887SOL    HW2 5748   2.041   4.835   3.823
 1888SOL     OW 5749   0.911   2.693   4.200
 1888SOL    HW1 5750   0.858   2.740   4.264
 1888SOL    HW2 5751   0.898   2.742   4.119
 1889SOL     OW 5752   2.380   3.873   4.164
 1889SOL    HW1 5753   2.321   3.948   4.151
 1889SOL    HW2 5754   2.322   3.797   4.165
 1890SOL     OW 5755   0.938   4.015   3.423
 1890SOL    HW1 5756   0.853   3.998   3.463
 1890SOL    HW2 5757   0.993   4.046   3.495
 1891SOL     OW 5758   1.978   3.839   3.466
 1891SOL    HW1 5759   1.998   3.841   3.560
 1891SOL    HW2 5760   2.013   3.756   3.436
 1892SOL     OW 5761   0.994   3.365   4.694
 1892SOL    HW1 5762   0.898   3.370   4.689
 1892SOL    HW2 5763   1.013   3.373   4.788
 1893SOL     OW 5764   1.402   4.871   3.036
 1893SOL    HW1 5765   1.471   4.876   2.970
 1893SOL    HW2 5766   1.353   4.792   3.013
 1894SOL     OW 5767   0.335   4.549   2.640
 1894SOL    HW1 5768   0.313   4.456   2.645
 1894SOL    HW2 5769   0.326   4.580   2.731
 1895SOL     OW 5770   0.292   4.170   3.295
 1895SOL    HW1 5771   0.290   4.091   3.240
 1895SOL    HW2 5772   0.384   4.184   3.315
 1896SOL     OW 5773   0.175   2.773   3.062
 1896SOL    HW1 5774   0.231   2.850   3.070
 1896SOL    HW2 5775   0.236   2.700   3.055
 1897SOL     OW 5776   0.571   4.154   4.651
 1897SOL    HW1 5777   0.613   4.171   4.735
 1897SOL    HW2 5778   0.482   4.186   4.662
 1898SOL     OW 5779   1.594   3.814   4.159
 1898SOL    HW1 5780   1.541   3.769   4.224
 1898SOL    HW2 5781   1.671   3.759   4.148
 1899SOL     OW 5782   0.651   3.707   4.701
 1899SOL    HW1 5783   0.613   3.653   4.771
 1899SOL    HW2 5784   0.646   3.652   4.623
 1900SOL     OW 5785   0.237   3.349   3.014
 1900SOL    HW1 5786   0.265   3.366   3.104
 1900SOL    HW2 5787   0.304   3.291   2.979
 1901SOL     OW 5788   1.475   3.918   3.581
 1901SOL    HW1 5789   1.415   3.856   3.623
 1901SOL    HW2 5790   1.548   3.863   3.550
 1902SOL     OW 5791   0.943   4.883   4.200
 1902SOL    HW1 5792   0.925   4.866   4.108
 1902SOL    HW2 5793   0.946   4.978   4.206
 1903SOL     OW 5794   0.326   4.249   4.700
 1903SOL    HW1 5795   0.276   4.224   4.622
 1903SOL    HW2 5796   0.264   4.296   4.755
 1904SOL     OW 5797   0.041   3.653   4.788
 1904SOL    HW1 5798   0.105   3.656   4.717
 1904SOL    HW2 5799  -0.025   3.591   4.758
 1905SOL     OW 5800   0.253   4.018   4.487
 1905SOL    HW1 5801   0.257   3.976   4.401
 1905SOL    HW2 5802   0.202   4.097   4.473
 1906SOL     OW 5803   1.843   3.242   4.779
 1906SOL    HW1 5804   1.910   3.213   4.716
 1906SOL    HW2 5805   1.787   3.165   4.791
 1907SOL     OW 5806   1.595   4.097   4.730
 1907SOL    HW1 5807   1.659   4.133   4.668
 1907SOL    HW2 5808   1.623   4.130   4.815
 1908SOL     OW 5809   1.334   3.955   3.956
 1908SOL    HW1 5810   1.267   4.023   3.968
 1908SOL    HW2 5811   1.369   3.942   4.044
 1909SOL     OW 5812   0.292   4.372   4.084
 1909SOL    HW1 5813   0.350   4.333   4.150
 1909SOL    HW2 5814   0.249   4.297   4.043
 1910SOL     OW 5815   1.509   3.857   4.624
 1910SOL    HW1 5816   1.557   3.934   4.653
 1910SOL    HW2 5817   1.495   3.806   4.704
 1911SOL     OW 5818   1.306   4.185   4.491
 1911SOL    HW1 5819   1.260   4.262   4.458
 1911SOL    HW2 5820   1.387   4.181   4.440
 1912SOL     OW 5821   1.262   2.883   3.993
 1912SOL    HW1 5822   1.186   2.826   3.975
 1912SOL    HW2 5823   1.260   2.947   3.922
 1913SOL     OW 5824   2.123   4.633   3.305
 1913SOL    HW1 5825   2.116   4.702   3.371
 1913SOL    HW2 5826   2.034   4.621   3.273
 1914SOL     OW 5827   1.908   4.448   4.100
 1914SOL    HW1 5828   1.832   4.421   4.152
 1914SOL    HW2 5829   1.963   4.370   4.096
 1915SOL     OW 5830   1.664   4.268   3.310
 1915SOL    HW1 5831   1.742   4.212   3.318
 1915SOL    HW2 5832   1.599   4.213   3.267
 1916SOL     OW 5833   0.071   3.599   3.319
 1916SOL    HW1 5834   0.141   3.626   3.377
 1916SOL    HW2 5835   0.098   3.630   3.232
 1917SOL     OW 5836   1.127   4.923   4.747
 1917SOL    HW1 5837   1.087   4.989   4.803
 1917SOL    HW2 5838   1.082   4.932   4.663
 1918SOL     OW 5839   0.623   3.766   3.753
 1918SOL    HW1 5840   0.696   3.729   3.803
 1918SOL    HW2 5841   0.548   3.710   3.774
 1919SOL     OW 5842   1.577   3.421   4.868
 1919SOL    HW1 5843   1.631   3.413   4.789
 1919SOL    HW2 5844   1.507   3.356   4.856
 1920SOL     OW 5845   1.044   3.113   4.321
 1920SOL    HW1 5846   1.051   3.170   4.245
 1920SOL    HW2 5847   1.078   3.029   4.290
 1921SOL     OW 5848   0.440   3.050   3.621
 1921SOL    HW1 5849   0.507   3.075   3.557
 1921SOL    HW2 5850   0.358   3.080   3.582
 1922SOL     OW 5851   0.715   3.825   2.915
 1922SOL    HW1 5852   0.759   3.750   2.954
 1922SOL    HW2 5853   0.684   3.876   2.990
 1923SOL     OW 5854   2.349   4.870   3.775
 1923SOL    HW1 5855   2.398   4.810   3.831
 1923SOL    HW2 5856   2.265   4.882   3.821
 1924SOL     OW 5857   1.099   4.027   4.507
 1924SOL    HW1 5858   1.169   4.090   4.496
 1924SOL    HW2 5859   1.129   3.968   4.577
 1925SOL     OW 5860   1.316   3.434   2.515
 1925SOL    HW1 5861   1.253   3.374   2.475
 1925SOL    HW2 5862   1.268   3.475   2.587
 1926SOL     OW 5863   2.146   4.855   4.501
 1926SOL    HW1 5864   2.115   4.774   4.542
 1926SOL    HW2 5865   2.191   4.901   4.572
 1927SOL     OW 5866   1.144   3.191   3.078
 1927SOL    HW1 5867   1.200   3.265   3.055
 1927SOL    HW2 5868   1.169   3.122   3.016
 1928SOL     OW 5869   1.192   3.180   2.729
 1928SOL    HW1 5870   1.098   3.173   2.746
 1928SOL    HW2 5871   1.222   3.250   2.787
 1929SOL     OW 5872   1.849   3.184   3.819
 1929SOL    HW1 5873   1.910   3.241   3.772
 1929SOL    HW2 5874   1.903   3.111   3.849
 1930SOL     OW 5875   1.148   3.502   3.604
 1930SOL    HW1 5876   1.108   3.580   3.642
 1930SOL    HW2 5877   1.119   3.430   3.660
 1931SOL     OW 5878   1.046   2.756   4.776
 1931SOL    HW1 5879   1.086   2.823   4.720
 1931SOL    HW2 5880   1.115   2.730   4.836
 1932SOL     OW 5881   2.211   4.007   4.475
 1932SOL    HW1 5882   2.288   3.987   4.422
 1932SOL    HW2 5883   2.160   3.925   4.475
 1933SOL     OW 5884   0.161   3.185   2.720
 1933SOL    HW1 5885   0.081   3.207   2.672
 1933SOL    HW2 5886   0.215   3.264   2.713
 1934SOL     OW 5887   0.099   3.799   3.644
 1934SOL    HW1 5888   0.140   3.815   3.558
 1934SOL    HW2 5889   0.134   3.714   3.671
 1935SOL     OW 5890   2.357   2.878   3.693
 1935SOL    HW1 5891   2.286   2.872   3.630
 1935SOL    HW2 5892   2.364   2.790   3.730
 1936SOL     OW 5893   1.135   3.855   4.280
 1936SOL    HW1 5894   1.214   3.809   4.307
 1936SOL    HW2 5895   1.133   3.933   4.335
 1937SOL     OW 5896   1.408   3.464   3.502
 1937SOL    HW1 5897   1.407   3.546   3.453
 1937SOL    HW2 5898   1.317   3.453   3.531
 1938SOL     OW 5899   0.288   3.174   3.888
 1938SOL    HW1 5900   0.231   3.222   3.829
 1938SOL    HW2 5901   0.328   3.106   3.833
 1939SOL     OW 5902   1.380   2.727   3.113
 1939SOL    HW1 5903   1.401   2.784   3.038
 1939SOL    HW2 5904   1.436   2.651   3.102
 1940SOL     OW 5905   1.885   4.566   2.723
 1940SOL    HW1 5906   1.844   4.496   2.774
 1940SOL    HW2 5907   1.964   4.526   2.687
 1941SOL     OW 5908   0.399   3.031   2.649
 1941SOL    HW1 5909   0.389   2.965   2.718
 1941SOL    HW2 5910   0.322   3.087   2.660
 1942SOL     OW 5911   1.262   4.615   3.720
 1942SOL    HW1 5912   1.272   4.640   3.628
 1942SOL    HW2 5913   1.293   4.692   3.769
 1943SOL     OW 5914   0.440   2.576   2.568
 1943SOL    HW1 5915   0.480   2.564   2.481
 1943SOL    HW2 5916   0.514   2.593   2.626
 1944SOL     OW 5917   1.081   3.798   4.747
 1944SOL    HW1 5918   0.994   3.837   4.737
 1944SOL    HW2 5919   1.082   3.724   4.687
 1945SOL     OW 5920   0.227   4.138   3.551
 1945SOL    HW1 5921   0.278   4.059   3.570
 1945SOL    HW2 5922   0.229   4.145   3.455
 1946SOL     OW 5923   1.290   3.375   2.911
 1946SOL    HW1 5924   1.381   3.397   2.894
 1946SOL    HW2 5925   1.240   3.449   2.876
 1947SOL     OW 5926   1.935   4.816   2.832
 1947SOL    HW1 5927   1.918   4.728   2.797
 1947SOL    HW2 5928   1.942   4.872   2.754
 1948SOL     OW 5929   0.927   2.854   2.700
 1948SOL    HW1 5930   0.969   2.919   2.644
 1948SOL    HW2 5931   0.874   2.801   2.640
 1949SOL     OW 5932   2.256   4.093   3.649
 1949SOL    HW1 5933   2.162   4.106   3.641
 1949SOL    HW2 5934   2.293   4.138   3.573
 1950SOL     OW 5935   1.071   3.283   3.809
 1950SOL    HW1 5936   1.022   3.303   3.889
 1950SOL    HW2 5937   1.163   3.295   3.834
 1951SOL     OW 5938   0.954   4.938   4.527
 1951SOL    HW1 5939   1.004   4.940   4.446
 1951SOL    HW2 5940   0.884   4.875   4.509
 1952SOL     OW 5941   0.306   2.801   3.482
 1952SOL    HW1 5942   0.246   2.872   3.505
 1952SOL    HW2 5943   0.354   2.834   3.406
 1953SOL     OW 5944   1.988   4.953   2.579
 1953SOL    HW1 5945   1.944   4.919   2.501
 1953SOL    HW2 5946   2.043   5.024   2.546
 1954SOL     OW 5947   1.932   4.373   3.788
 1954SOL    HW1 5948   1.955   4.333   3.704
 1954SOL    HW2 5949   1.837   4.364   3.794
 1955SOL     OW 5950   0.277   2.891   3.793
 1955SOL    HW1 5951   0.297   2.902   3.700
 1955SOL    HW2 5952   0.362   2.880   3.835
 1956SOL     OW 5953   1.555   4.955   2.798
 1956SOL    HW1 5954   1.601   5.036   2.819
 1956SOL    HW2 5955   1.621   4.899   2.757
 1957SOL     OW 5956   0.655   4.944   3.126
 1957SOL    HW1 5957   0.747   4.962   3.110
 1957SOL    HW2 5958   0.625   4.898   3.047
 1958SOL     OW 5959   1.419   3.208   4.755
 1958SOL    HW1 5960   1.347   3.206   4.692
 1958SOL    HW2 5961   1.382   3.170   4.835
 1959SOL     OW 5962   0.146   4.492   4.324
 1959SOL    HW1 5963   0.077   4.542   4.280
 1959SOL    HW2 5964   0.177   4.430   4.258
 1960SOL     OW 5965   0.781   3.584   2.575
 1960SOL    HW1 5966   0.744   3.673   2.579
 1960SOL    HW2 5967   0.710   3.530   2.542
 1961SOL     OW 5968   2.321   2.842   3.039
 1961SOL    HW1 5969   2.319   2.794   2.957
 1961SOL    HW2 5970   2.364   2.782   3.100
 1962SOL     OW 5971   0.184   3.458   2.598
 1962SOL    HW1 5972   0.166   3.541   2.640
 1962SOL    HW2 5973   0.124   3.454   2.524
 1963SOL     OW 5974   1.982   4.680   3.731
 1963SOL    HW1 5975   1.936   4.672   3.815
 1963SOL    HW2 5976   1.916   4.658   3.665
 1964SOL     OW 5977   1.198   3.570   2.728
 1964SOL    HW1 5978   1.277   3.625   2.735
 1964SOL    HW2 5979   1.137   3.622   2.676
 1965SOL     OW 5980   1.654   4.018   2.718
 1965SOL    HW1 5981   1.663   3.956   2.646
 1965SOL    HW2 5982   1.580   4.074   2.693
 1966SOL     OW 5983   2.450   4.064   4.639
 1966SOL    HW1 5984   2.542   4.049   4.660
 1966SOL    HW2 5985   2.422   3.985   4.593
 1967SOL     OW 5986   0.046   2.498   3.489
 1967SOL    HW1 5987   0.052   2.404   3.468
 1967SOL    HW2 5988  -0.046   2.519   3.474
 1968SOL     OW 5989   1.303   3.032   2.515
 1968SOL    HW1 5990   1.267   3.094   2.578
 1968SOL    HW2 5991   1.384   3.001   2.554
 1969SOL     OW 5992   0.754   4.267   3.539
 1969SOL    HW1 5993   0.849   4.261   3.553
 1969SOL    HW2 5994   0.721   4.308   3.619
 1970SOL     OW 5995   1.969   4.073   3.690
 1970SOL    HW1 5996   1.984   3.999   3.749
 1970SOL    HW2 5997   1.874   4.080   3.684
 1971SOL     OW 5998   2.154   2.715   4.581
 1971SOL    HW1 5999   2.078   2.679   4.535
 1971SOL    HW2 6000   2.201   2.639   4.615
 1972SOL     OW 6001   2.097   2.671   3.962
 1972SOL    HW1 6002   2.062   2.594   3.916
 1972SOL    HW2 6003   2.188   2.677   3.933
 1973SOL     OW 6004   0.875   4.608   3.488
 1973SOL    HW1 6005   0.784   4.617   3.516
 1973SOL    HW2 6006   0.874   4.632   3.396
 1974SOL     OW 6007   2.158   2.838   3.514
 1974SOL    HW1 6008   2.080   2.803   3.557
 1974SOL    HW2 6009   2.130   2.924   3.481
 1975SOL     OW 6010   2.445   4.467   4.617
 1975SOL    HW1 6011   2.434   4.549   4.666
 1975SOL    HW2 6012   2.437   4.492   4.525
 1976SOL     OW 6013   0.896   2.860   3.975
 1976SOL    HW1 6014   0.856   2.943   3.952
 1976SOL    HW2 6015   0.961   2.844   3.906
 1977SOL     OW 6016   2.070   3.851   2.845
 1977SOL    HW1 6017   2.010   3.781   2.822
 1977SOL    HW2 6018   2.128   3.813   2.910
 1978SOL     OW 6019   0.935   3.370   3.437
 1978SOL    HW1 6020   0.931   3.283   3.478
 1978SOL    HW2 6021   0.980   3.355   3.354
 1979SOL     OW 6022   2.343   3.506   4.631
 1979SOL    HW1 6023   2.351   3.464   4.545
 1979SOL    HW2 6024   2.253   3.537   4.635
 1980SOL     OW 6025   1.642   4.872   3.537
 1980SOL    HW1 6026   1.619   4.916   3.619
 1980SOL    HW2 6027   1.558   4.862   3.491
 1981SOL     OW 6028   0.730   3.588   3.517
 1981SOL    HW1 6029   0.786   3.524   3.472
 1981SOL    HW2 6030   0.764   3.591   3.606
 1982SOL     OW 6031   0.575   4.709   3.547
 1982SOL    HW1 6032   0.570   4.757   3.464
 1982SOL    HW2 6033   0.491   4.662   3.552
 1983SOL     OW 6034   1.153   3.148   4.563
 1983SOL    HW1 6035   1.110   3.224   4.601
 1983SOL    HW2 6036   1.101   3.127   4.486
 1984SOL     OW 6037   0.667   3.056   2.723
 1984SOL    HW1 6038   0.671   3.082   2.815
 1984SOL    HW2 6039   0.583   3.011   2.714
 1985SOL     OW 6040   1.224   4.856   3.834
 1985SOL    HW1 6041   1.285   4.906   3.889
 1985SOL    HW2 6042   1.163   4.815   3.897
 1986SOL     OW 6043   1.658   3.155   4.230
 1986SOL    HW1 6044   1.565   3.165   4.253
 1986SOL    HW2 6045   1.697   3.113   4.306
 1987SOL     OW 6046   1.328   4.633   3.458
 1987SOL    HW1 6047   1.390   4.596   3.394
 1987SOL    HW2 6048   1.334   4.727   3.445
 1988SOL     OW 6049   0.273   4.905   4.745
 1988SOL    HW1 6050   0.197   4.899   4.687
 1988SOL    HW2 6051   0.298   4.814   4.760
 1989SOL     OW 6052   1.045   3.595   3.343
 1989SOL    HW1 6053   1.140   3.605   3.338
 1989SOL    HW2 6054   1.032   3.521   3.401
 1990SOL     OW 6055   2.043   3.366   2.917
 1990SOL    HW1 6056   1.958   3.347   2.877
 1990SOL    HW2 6057   2.095   3.287   2.900
 1991SOL     OW 6058   1.686   4.304   3.712
 1991SOL    HW1 6059   1.691   4.209   3.710
 1991SOL    HW2 6060   1.596   4.323   3.738
 1992SOL     OW 6061   1.808   2.775   3.941
 1992SOL    HW1 6062   1.866   2.747   4.012
 1992SOL    HW2 6063   1.723   2.788   3.983
 1993SOL     OW 6064   1.826   3.324   4.071
 1993SOL    HW1 6065   1.805   3.318   3.978
 1993SOL    HW2 6066   1.759   3.271   4.114
 1994SOL     OW 6067   0.426   3.232   4.866
 1994SOL    HW1 6068   0.357   3.263   4.807
 1994SOL    HW2 6069   0.403   3.141   4.884
 1995SOL     OW 6070   1.008   2.896   3.364
 1995SOL    HW1 6071   0.947   2.852   3.423
 1995SOL    HW2 6072   0.989   2.859   3.278
 1996SOL     OW 6073   0.222   3.550   3.731
 1996SOL    HW1 6074   0.192   3.460   3.747
 1996SOL    HW2 6075   0.225   3.590   3.818
 1997SOL     OW 6076   1.970   4.884   4.120
 1997SOL    HW1 6077   2.048   4.903   4.172
 1997SOL    HW2 6078   1.901   4.936   4.161
 1998SOL     OW 6079   2.237   3.077   3.368
 1998SOL    HW1 6080   2.330   3.076   3.345
 1998SOL    HW2 6081   2.209   3.167   3.349
 1999SOL     OW 6082   2.392   2.839   4.930
 1999SOL    HW1 6083   2.418   2.748   4.946
 1999SOL    HW2 6084   2.436   2.863   4.848
 2000SOL     OW 6085   0.914   3.183   2.771
 2000SOL    HW1 6086   0.851   3.256   2.774
 2000SOL    HW2 6087   0.878   3.123   2.706
 2001SOL     OW 6088   1.795   4.220   4.901
 2001SOL    HW1 6089   1.831   4.137   4.932
 2001SOL    HW2 6090   1.852   4.245   4.829
 2002SOL     OW 6091   2.224   3.604   4.207
 2002SOL    HW1 6092   2.282   3.532   4.232
 2002SOL    HW2 6093   2.136   3.566   4.212
 2003SOL     OW 6094   2.048   3.147   4.624
 2003SOL    HW1 6095   2.048   3.084   4.696
 2003SOL    HW2 6096   2.116   3.116   4.564
 2004SOL     OW 6097   0.691   3.191   4.233
 2004SOL    HW1 6098   0.748   3.146   4.296
 2004SOL    HW2 6099   0.700   3.284   4.255
 2005SOL     OW 6100   1.809   4.698   4.401
 2005SOL    HW1 6101   1.898   4.668   4.419
 2005SOL    HW2 6102   1.812   4.732   4.312
 2006SOL     OW 6103   2.291   3.350   3.319
 2006SOL    HW1 6104   2.345   3.329   3.243
 2006SOL    HW2 6105   2.201   3.340   3.289
 2007SOL     OW 6106   1.732   2.495   4.271
 2007SOL    HW1 6107   1.697   2.453   4.349
 2007SOL    HW2 6108   1.660   2.547   4.237
 2008SOL     OW 6109   2.361   2.636   3.865
 2008SOL    HW1 6110   2.455   2.648   3.874
 2008SOL    HW2 6111   2.351   2.559   3.810
 2009SOL     OW 6112   1.255   4.373   3.507
 2009SOL    HW1 6113   1.312   4.321   3.564
 2009SOL    HW2 6114   1.283   4.463   3.521
 2010SOL     OW 6115   2.168   4.493   3.645
 2010SOL    HW1 6116   2.117   4.553   3.700
 2010SOL    HW2 6117   2.102   4.448   3.591
 2011SOL     OW 6118   2.247   2.500   4.705
 2011SOL    HW1 6119   2.320   2.543   4.749
 2011SOL    HW2 6120   2.216   2.434   4.767
 2012SOL     OW 6121   2.132   2.887   4.818
 2012SOL    HW1 6122   2.214   2.859   4.858
 2012SOL    HW2 6123   2.131   2.843   4.733
 2013SOL     OW 6124   1.111   4.125   3.634
 2013SOL    HW1 6125   1.061   4.204   3.656
 2013SOL    HW2 6126   1.200   4.144   3.665
 2014SOL     OW 6127   1.465   3.095   3.013
 2014SOL    HW1 6128   1.548   3.142   3.009
 2014SOL    HW2 6129   1.440   3.100   3.105
 2015SOL     OW 6130   2.318   3.514   2.667
 2015SOL    HW1 6131   2.391   3.567   2.633
 2015SOL    HW2 6132   2.344   3.424   2.650
 2016SOL     OW 6133   0.359   4.275   2.686
 2016SOL    HW1 6134   0.370   4.216   2.611
 2016SOL    HW2 6135   0.354   4.218   2.762
 2017SOL     OW 6136   0.011   4.690   3.912
 2017SOL    HW1 6137  -0.033   4.608   3.890
 2017SOL    HW2 6138   0.087   4.692   3.854
 2018SOL     OW 6139   2.108   2.937   3.165
 2018SOL    HW1 6140   2.178   2.903   3.111
 2018SOL    HW2 6141   2.152   2.979   3.239
 2019SOL     OW 6142   0.625   4.409   4.160
 2019SOL    HW1 6143   0.597   4.488   4.113
 2019SOL    HW2 6144   0.691   4.440   4.223
 2020SOL     OW 6145   1.095   3.605   4.540
 2020SOL    HW1 6146   1.083   3.612   4.445
 2020SOL    HW2 6147   1.049   3.524   4.564
 2021SOL     OW 6148   0.056   4.643   2.533
 2021SOL    HW1 6149   0.001   4.706   2.579
 2021SOL    HW2 6150   0.137   4.641   2.584
 2022SOL     OW 6151   1.093   4.444   4.647
 2022SOL    HW1 6152   1.086   4.449   4.552
 2022SOL    HW2 6153   1.061   4.357   4.669
 2023SOL     OW 6154   1.336   6.557   0.888
 2023SOL    HW1 6155   1.399   6.527   0.953
 2023SOL    HW2 6156   1.287   6.626   0.933
 2024SOL     OW 6157   2.010   6.288   1.665
 2024SOL    HW1 6158   2.066   6.261   1.592
 2024SOL    HW2 6159   2.058   6.262   1.743
 2025SOL     OW 6160   2.228   5.620   1.662
 2025SOL    HW1 6161   2.158   5.563   1.695
 2025SOL    HW2 6162   2.281   5.562   1.607
 2026SOL     OW 6163   1.951   6.276   1.280
 2026SOL    HW1 6164   1.890   6.206   1.301
 2026SOL    HW2 6165   2.021   6.268   1.345
 2027SOL     OW 6166   1.871   6.488   1.527
 2027SOL    HW1 6167   1.920   6.415   1.563
 2027SOL    HW2 6168   1.814   6.517   1.599
 2028SOL     OW 6169   1.433   5.180   2.188
 2028SOL    HW1 6170   1.356   5.228   2.219
 2028SOL    HW2 6171   1.506   5.217   2.238
 2029SOL     OW 6172   0.387   5.908   0.777
 2029SOL    HW1 6173   0.455   5.959   0.734
 2029SOL    HW2 6174   0.378   5.950   0.863
 2030SOL     OW 6175   1.713   5.697   0.485
 2030SOL    HW1 6176   1.709   5.785   0.522
 2030SOL    HW2 6177   1.727   5.711   0.392
 2031SOL     OW 6178   1.615   5.249   1.119
 2031SOL    HW1 6179   1.632   5.339   1.149
 2031SOL    HW2 6180   1.701   5.218   1.090
 2032SOL     OW 6181   1.889   4.995   1.059
 2032SOL    HW1 6182   1.816   4.948   1.099
 2032SOL    HW2 6183   1.954   4.928   1.041
 2033SOL     OW 6184   1.616   4.996   1.323
 2033SOL    HW1 6185   1.659   5.081   1.333
 2033SOL    HW2 6186   1.543   4.999   1.386
 2034SOL     OW 6187   2.330   6.234   0.892
 2034SOL    HW1 6188   2.396   6.171   0.863
 2034SOL    HW2 6189   2.381   6.308   0.924
 2035SOL     OW 6190   1.804   6.226   2.275
 2035SOL    HW1 6191   1.834   6.136   2.288
 2035SOL    HW2 6192   1.876   6.280   2.307
 2036SOL     OW 6193   2.227   5.622   0.400
 2036SOL    HW1 6194   2.240   5.554   0.466
 2036SOL    HW2 6195   2.304   5.615   0.344
 2037SOL     OW 6196   0.703   6.477   0.672
 2037SOL    HW1 6197   0.673   6.514   0.755
 2037SOL    HW2 6198   0.798   6.472   0.681
 2038SOL     OW 6199   0.564   5.701   0.778
 2038SOL    HW1 6200   0.617   5.718   0.856
 2038SOL    HW2 6201   0.505   5.776   0.773
 2039SOL     OW 6202   0.134   6.374   0.733
 2039SOL    HW1 6203   0.073   6.414   0.796
 2039SOL    HW2 6204   0.077   6.327   0.672
 2040SOL     OW 6205   1.193   5.384   2.141
 2040SOL    HW1 6206   1.198   5.344   2.055
 2040SOL    HW2 6207   1.202   5.478   2.125
 2041SOL     OW 6208   2.418   5.067   2.428
 2041SOL    HW1 6209   2.360   5.051   2.503
 2041SOL    HW2 6210   2.506   5.049   2.462
 2042SOL     OW 6211   0.981   6.812   0.021
 2042SOL    HW1 6212   1.002   6.740   0.081
 2042SOL    HW2 6213   0.965   6.769  -0.063
 2043SOL     OW 6214   2.025   6.041   2.120
 2043SOL    HW1 6215   1.976   6.030   2.201
 2043SOL    HW2 6216   1.994   5.972   2.063
 2044SOL     OW 6217   2.284   6.394   2.446
 2044SOL    HW1 6218   2.370   6.352   2.441
 2044SOL    HW2 6219   2.300   6.485   2.423
 2045SOL     OW 6220   1.961   5.956   1.791
 2045SOL    HW1 6221   1.924   5.901   1.722
 2045SOL    HW2 6222   1.935   5.913   1.873
 2046SOL     OW 6223   1.846   5.282   1.804
 2046SOL    HW1 6224   1.757   5.248   1.801
 2046SOL    HW2 6225   1.883   5.245   1.884
 2047SOL     OW 6226   1.773   5.904   1.147
 2047SOL    HW1 6227   1.746   5.984   1.191
 2047SOL    HW2 6228   1.868   5.901   1.160
 2048SOL     OW 6229   1.572   5.735   1.059
 2048SOL    HW1 6230   1.625   5.798   1.109
 2048SOL    HW2 6231   1.508   5.790   1.012
 2049SOL     OW 6232   0.878   5.982   1.880
 2049SOL    HW1 6233   0.819   5.953   1.949
 2049SOL    HW2 6234   0.865   6.077   1.874
 2050SOL     OW 6235   0.348   5.109   2.075
 2050SOL    HW1 6236   0.344   5.052   2.152
 2050SOL    HW2 6237   0.366   5.050   2.002
 2051SOL     OW 6238   1.291   6.493   2.249
 2051SOL    HW1 6239   1.327   6.404   2.240
 2051SOL    HW2 6240   1.343   6.546   2.189
 2052SOL     OW 6241   0.825   5.420   0.499
 2052SOL    HW1 6242   0.863   5.428   0.412
 2052SOL    HW2 6243   0.781   5.503   0.514
 2053SOL     OW 6244   0.436   6.424   0.582
 2053SOL    HW1 6245   0.514   6.438   0.635
 2053SOL    HW2 6246   0.407   6.335   0.604
 2054SOL     OW 6247   2.455   5.160   0.710
 2054SOL    HW1 6248   2.471   5.074   0.671
 2054SOL    HW2 6249   2.537   5.208   0.696
 2055SOL     OW 6250   0.266   6.132   0.563
 2055SOL    HW1 6251   0.180   6.160   0.531
 2055SOL    HW2 6252   0.277   6.043   0.529
 2056SOL     OW 6253   1.937   6.485   0.098
 2056SOL    HW1 6254   1.931   6.429   0.175
 2056SOL    HW2 6255   1.974   6.429   0.030
 2057SOL     OW 6256   2.151   6.586   0.380
 2057SOL    HW1 6257   2.116   6.498   0.362
 2057SOL    HW2 6258   2.235   6.588   0.335
 2058SOL     OW 6259   1.553   5.963   1.908
 2058SOL    HW1 6260   1.637   6.004   1.924
 2058SOL    HW2 6261   1.555   5.883   1.962
 2059SOL     OW 6262   0.063   5.463   1.792
 2059SOL    HW1 6263   0.079   5.436   1.702
 2059SOL    HW2 6264  -0.022   5.425   1.814
 2060SOL     OW 6265   1.448   5.141   1.926
 2060SOL    HW1 6266   1.451   5.148   2.022
 2060SOL    HW2 6267   1.373   5.084   1.909
 2061SOL     OW 6268   1.277   6.417   0.527
 2061SOL    HW1 6269   1.235   6.414   0.613
 2061SOL    HW2 6270   1.339   6.490   0.533
 2062SOL     OW 6271   1.910   5.417   0.494
 2062SOL    HW1 6272   1.842   5.410   0.561
 2062SOL    HW2 6273   1.992   5.413   0.543
 2063SOL     OW 6274   0.858   6.397   2.194
 2063SOL    HW1 6275   0.835   6.448   2.117
 2063SOL    HW2 6276   0.813   6.314   2.182
 2064SOL     OW 6277   2.262   5.968   1.069
 2064SOL    HW1 6278   2.250   5.935   0.980
 2064SOL    HW2 6279   2.343   6.020   1.065
 2065SOL     OW 6280   2.393   5.877   1.801
 2065SOL    HW1 6281   2.414   5.839   1.716
 2065SOL    HW2 6282   2.379   5.802   1.859
 2066SOL     OW 6283   2.029   5.839   0.742
 2066SOL    HW1 6284   1.951   5.786   0.761
 2066SOL    HW2 6285   2.024   5.856   0.648
 2067SOL     OW 6286   1.075   5.080   1.158
 2067SOL    HW1 6287   1.159   5.092   1.114
 2067SOL    HW2 6288   1.088   5.007   1.217
 2068SOL     OW 6289   1.651   5.138   0.600
 2068SOL    HW1 6290   1.660   5.074   0.671
 2068SOL    HW2 6291   1.718   5.112   0.536
 2069SOL     OW 6292   1.207   6.427   0.022
 2069SOL    HW1 6293   1.179   6.343  -0.014
 2069SOL    HW2 6294   1.244   6.474  -0.052
 2070SOL     OW 6295   1.788   6.123   1.964
 2070SOL    HW1 6296   1.728   6.186   2.006
 2070SOL    HW2 6297   1.874   6.165   1.970
 2071SOL     OW 6298   1.649   6.294   0.029
 2071SOL    HW1 6299   1.583   6.228   0.009
 2071SOL    HW2 6300   1.676   6.328  -0.056
 2072SOL     OW 6301   0.553   5.467   1.647
 2072SOL    HW1 6302   0.567   5.556   1.681
 2072SOL    HW2 6303   0.597   5.410   1.710
 2073SOL     OW 6304   1.282   5.273   0.888
 2073SOL    HW1 6305   1.300   5.249   0.797
 2073SOL    HW2 6306   1.207   5.332   0.883
 2074SOL     OW 6307   0.246   5.223   1.749
 2074SOL    HW1 6308   0.271   5.216   1.842
 2074SOL    HW2 6309   0.254   5.316   1.729
 2075SOL     OW 6310   0.649   5.310   1.854
 2075SOL    HW1 6311   0.606   5.309   1.940
 2075SOL    HW2 6312   0.646   5.219   1.825
 2076SOL     OW 6313   1.730   5.491   1.988
 2076SOL    HW1 6314   1.726   5.463   2.079
 2076SOL    HW2 6315   1.787   5.427   1.945
 2077SOL     OW 6316   0.372   6.099   1.919
 2077SOL    HW1 6317   0.314   6.064   1.851
 2077SOL    HW2 6318   0.441   6.033   1.927
 2078SOL     OW 6319   0.488   5.251   1.487
 2078SOL    HW1 6320   0.509   5.193   1.559
 2078SOL    HW2 6321   0.510   5.339   1.519
 2079SOL     OW 6322   0.743   5.577   1.434
 2079SOL    HW1 6323   0.724   5.656   1.384
 2079SOL    HW2 6324   0.669   5.569   1.496
 2080SOL     OW 6325   2.366   5.704   1.996
 2080SOL    HW1 6326   2.453   5.667   2.010
 2080SOL    HW2 6327   2.315   5.633   1.957
 2081SOL     OW 6328   0.629   5.231   0.520
 2081SOL    HW1 6329   0.706   5.286   0.529
 2081SOL    HW2 6330   0.611   5.200   0.608
 2082SOL     OW 6331   0.068   5.393   2.190
 2082SOL    HW1 6332   0.061   5.308   2.148
 2082SOL    HW2 6333   0.094   5.453   2.119
 2083SOL     OW 6334   2.344   5.476   0.165
 2083SOL    HW1 6335   2.377   5.431   0.088
 2083SOL    HW2 6336   2.377   5.425   0.239
 2084SOL     OW 6337   1.597   5.337   2.453
 2084SOL    HW1 6338   1.663   5.282   2.496
 2084SOL    HW2 6339   1.592   5.415   2.507
 2085SOL     OW 6340   1.398   6.232   1.901
 2085SOL    HW1 6341   1.435   6.281   1.974
 2085SOL    HW2 6342   1.415   6.140   1.923
 2086SOL     OW 6343   2.340   5.671   1.365
 2086SOL    HW1 6344   2.375   5.584   1.348
 2086SOL    HW2 6345   2.257   5.674   1.318
 2087SOL     OW 6346   1.332   5.050   0.187
 2087SOL    HW1 6347   1.364   5.056   0.276
 2087SOL    HW2 6348   1.389   4.985   0.145
 2088SOL     OW 6349   0.609   5.992   1.760
 2088SOL    HW1 6350   0.671   6.039   1.704
 2088SOL    HW2 6351   0.524   6.005   1.717
 2089SOL     OW 6352   1.621   6.223   0.363
 2089SOL    HW1 6353   1.538   6.266   0.343
 2089SOL    HW2 6354   1.684   6.263   0.303
 2090SOL     OW 6355   0.426   5.529   1.943
 2090SOL    HW1 6356   0.428   5.510   1.849
 2090SOL    HW2 6357   0.456   5.448   1.985
 2091SOL     OW 6358   2.101   5.815   1.537
 2091SOL    HW1 6359   2.009   5.813   1.562
 2091SOL    HW2 6360   2.143   5.750   1.594
 2092SOL     OW 6361   1.111   6.083   1.460
 2092SOL    HW1 6362   1.190   6.135   1.475
 2092SOL    HW2 6363   1.133   5.996   1.493
 2093SOL     OW 6364   2.333   6.274   1.238
 2093SOL    HW1 6365   2.424   6.292   1.217
 2093SOL    HW2 6366   2.286   6.354   1.216
 2094SOL     OW 6367   2.085   6.707   1.850
 2094SOL    HW1 6368   2.112   6.645   1.917
 2094SOL    HW2 6369   1.989   6.700   1.847
 2095SOL     OW 6370   0.902   6.479   0.032
 2095SOL    HW1 6371   0.942   6.400   0.069
 2095SOL    HW2 6372   0.959   6.501  -0.042
 2096SOL     OW 6373   1.927   5.245   1.156
 2096SOL    HW1 6374   1.910   5.264   1.249
 2096SOL    HW2 6375   1.931   5.149   1.152
 2097SOL     OW 6376   0.614   5.334   1.137
 2097SOL    HW1 6377   0.576   5.246   1.135
 2097SOL    HW2 6378   0.541   5.391   1.160
 2098SOL     OW 6379   0.511   5.447   0.728
 2098SOL    HW1 6380   0.587   5.389   0.726
 2098SOL    HW2 6381   0.539   5.521   0.781
 2099SOL     OW 6382   1.434   6.140   2.379
 2099SOL    HW1 6383   1.379   6.083   2.433
 2099SOL    HW2 6384   1.512   6.087   2.360
 2100SOL     OW 6385   1.038   6.141   0.021
 2100SOL    HW1 6386   1.049   6.131  -0.074
 2100SOL    HW2 6387   0.946   6.120   0.037
 2101SOL     OW 6388   2.061   5.841   1.205
 2101SOL    HW1 6389   2.130   5.894   1.165
 2101SOL    HW2 6390   2.086   5.836   1.298
 2102SOL     OW 6391   1.723   4.996   0.003
 2102SOL    HW1 6392   1.631   4.973  -0.002
 2102SOL    HW2 6393   1.755   4.950   0.081
 2103SOL     OW 6394   1.756   5.222   0.152
 2103SOL    HW1 6395   1.820   5.244   0.220
 2103SOL    HW2 6396   1.779   5.134   0.124
 2104SOL     OW 6397   1.174   5.587   0.856
 2104SOL    HW1 6398   1.152   5.620   0.769
 2104SOL    HW2 6399   1.119   5.509   0.867
 2105SOL     OW 6400   1.319   5.881   1.401
 2105SOL    HW1 6401   1.366   5.810   1.445
 2105SOL    HW2 6402   1.368   5.960   1.425
 2106SOL     OW 6403   2.077   5.442   0.103
 2106SOL    HW1 6404   2.089   5.426   0.009
 2106SOL    HW2 6405   2.160   5.480   0.131
 2107SOL     OW 6406   0.589   5.942   2.390
 2107SOL    HW1 6407   0.500   5.976   2.377
 2107SOL    HW2 6408   0.578   5.848   2.402
 2108SOL     OW 6409   0.088   6.375   1.457
 2108SOL    HW1 6410   0.022   6.354   1.523
 2108SOL    HW2 6411   0.063   6.462   1.425
 2109SOL     OW 6412   0.309   5.693   1.686
 2109SOL    HW1 6413   0.216   5.676   1.673
 2109SOL    HW2 6414   0.349   5.674   1.601
 2110SOL     OW 6415   2.010   5.456   1.394
 2110SOL    HW1 6416   2.019   5.450   1.299
 2110SOL    HW2 6417   1.960   5.378   1.418
 2111SOL     OW 6418   0.016   5.564   0.431
 2111SOL    HW1 6419   0.063   5.492   0.473
 2111SOL    HW2 6420   0.078   5.599   0.367
 2112SOL     OW 6421   0.053   5.859   0.987
 2112SOL    HW1 6422  -0.025   5.810   0.960
 2112SOL    HW2 6423   0.047   5.941   0.938
 2113SOL     OW 6424   2.055   5.974   0.098
 2113SOL    HW1 6425   2.139   5.977   0.143
 2113SOL    HW2 6426   2.006   5.904   0.141
 2114SOL     OW 6427   0.505   5.994   0.358
 2114SOL    HW1 6428   0.462   6.077   0.336
 2114SOL    HW2 6429   0.450   5.927   0.317
 2115SOL     OW 6430   1.050   5.853   1.693
 2115SOL    HW1 6431   1.130   5.906   1.699
 2115SOL    HW2 6432   0.988   5.897   1.750
 2116SOL     OW 6433   0.341   5.960   1.663
 2116SOL    HW1 6434   0.268   6.007   1.624
 2116SOL    HW2 6435   0.347   5.879   1.613
 2117SOL     OW 6436   0.152   5.072   1.400
 2117SOL    HW1 6437   0.165   5.067   1.305
 2117SOL    HW2 6438   0.228   5.120   1.432
 2118SOL     OW 6439   0.269   5.842   2.171
 2118SOL    HW1 6440   0.294   5.934   2.186
 2118SOL    HW2 6441   0.293   5.825   2.080
 2119SOL     OW 6442   1.677   6.364   0.610
 2119SOL    HW1 6443   1.694   6.321   0.526
 2119SOL    HW2 6444   1.691   6.457   0.593
 2120SOL     OW 6445   0.976   6.288   1.594
 2120SOL    HW1 6446   1.033   6.324   1.661
 2120SOL    HW2 6447   1.017   6.206   1.568
 2121SOL     OW 6448   0.847   5.213   1.015
 2121SOL    HW1 6449   0.904   5.174   1.081
 2121SOL    HW2 6450   0.767   5.236   1.063
 2122SOL     OW 6451   2.041   6.482   2.237
 2122SOL    HW1 6452   2.075   6.406   2.285
 2122SOL    HW2 6453   2.108   6.500   2.171
 2123SOL     OW 6454   2.327   5.963   1.476
 2123SOL    HW1 6455   2.248   5.931   1.520
 2123SOL    HW2 6456   2.338   5.905   1.401
 2124SOL     OW 6457   2.085   6.245   1.946
 2124SOL    HW1 6458   2.133   6.180   1.895
 2124SOL    HW2 6459   2.065   6.201   2.029
 2125SOL     OW 6460   0.022   5.824   2.336
 2125SOL    HW1 6461   0.093   5.769   2.303
 2125SOL    HW2 6462  -0.036   5.835   2.261
 2126SOL     OW 6463   0.695   5.655   1.021
 2126SOL    HW1 6464   0.752   5.579   1.008
 2126SOL    HW2 6465   0.721   5.691   1.106
 2127SOL     OW 6466   0.075   6.191   0.072
 2127SOL    HW1 6467   0.052   6.178  -0.020
 2127SOL    HW2 6468   0.163   6.228   0.070
 2128SOL     OW 6469   2.192   5.493   1.961
 2128SOL    HW1 6470   2.152   5.487   1.874
 2128SOL    HW2 6471   2.177   5.407   2.000
 2129SOL     OW 6472   1.032   5.497   2.471
 2129SOL    HW1 6473   1.125   5.517   2.479
 2129SOL    HW2 6474   1.029   5.415   2.423
 2130SOL     OW 6475   0.017   5.156   2.057
 2130SOL    HW1 6476   0.031   5.068   2.093
 2130SOL    HW2 6477   0.005   5.142   1.963
 2131SOL     OW 6478   2.225   6.391   0.651
 2131SOL    HW1 6479   2.252   6.358   0.737
 2131SOL    HW2 6480   2.135   6.422   0.664
 2132SOL     OW 6481   0.666   5.673   0.521
 2132SOL    HW1 6482   0.716   5.754   0.525
 2132SOL    HW2 6483   0.645   5.653   0.612
 2133SOL     OW 6484   0.127   4.977   0.281
 2133SOL    HW1 6485   0.124   4.984   0.185
 2133SOL    HW2 6486   0.215   4.942   0.299
 2134SOL     OW 6487   0.267   5.703   0.976
 2134SOL    HW1 6488   0.194   5.765   0.982
 2134SOL    HW2 6489   0.321   5.736   0.904
 2135SOL     OW 6490   1.116   5.309   0.389
 2135SOL    HW1 6491   1.192   5.313   0.332
 2135SOL    HW2 6492   1.041   5.306   0.329
 2136SOL     OW 6493   2.476   5.732   0.648
 2136SOL    HW1 6494   2.503   5.816   0.610
 2136SOL    HW2 6495   2.498   5.667   0.581
 2137SOL     OW 6496   0.102   6.092   1.486
 2137SOL    HW1 6497   0.108   6.184   1.460
 2137SOL    HW2 6498   0.009   6.073   1.486
 2138SOL     OW 6499   0.120   5.445   1.062
 2138SOL    HW1 6500   0.091   5.487   0.982
 2138SOL    HW2 6501   0.041   5.432   1.113
 2139SOL     OW 6502   0.667   5.950   2.068
 2139SOL    HW1 6503   0.693   5.873   2.117
 2139SOL    HW2 6504   0.599   5.919   2.008
 2140SOL     OW 6505   1.481   6.076   1.261
 2140SOL    HW1 6506   1.458   5.996   1.215
 2140SOL    HW2 6507   1.399   6.126   1.264
 2141SOL     OW 6508   0.448   6.264   0.340
 2141SOL    HW1 6509   0.539   6.269   0.368
 2141SOL    HW2 6510   0.408   6.344   0.376
 2142SOL     OW 6511   1.915   5.976   2.360
 2142SOL    HW1 6512   1.982   5.970   2.428
 2142SOL    HW2 6513   1.892   5.885   2.340
 2143SOL     OW 6514   1.412   5.555   1.848
 2143SOL    HW1 6515   1.363   5.480   1.815
 2143SOL    HW2 6516   1.364   5.584   1.925
 2144SOL     OW 6517   1.804   5.707   0.776
 2144SOL    HW1 6518   1.747   5.722   0.852
 2144SOL    HW2 6519   1.770   5.627   0.737
 2145SOL     OW 6520   0.369   6.109   2.348
 2145SOL    HW1 6521   0.296   6.144   2.297
 2145SOL    HW2 6522   0.363   6.154   2.432
 2146SOL     OW 6523   0.042   5.085   1.649
 2146SOL    HW1 6524   0.114   5.143   1.671
 2146SOL    HW2 6525   0.058   5.060   1.558
 2147SOL     OW 6526   0.930   5.604   1.153
 2147SOL    HW1 6527   0.931   5.662   1.229
 2147SOL    HW2 6528   1.016   5.561   1.155
 2148SOL     OW 6529   0.775   5.638   2.474
 2148SOL    HW1 6530   0.715   5.605   2.542
 2148SOL    HW2 6531   0.849   5.578   2.477
 2149SOL     OW 6532   0.559   5.386   2.445
 2149SOL    HW1 6533   0.497   5.444   2.489
 2149SOL    HW2 6534   0.515   5.362   2.364
 2150SOL     OW 6535   1.306   6.213   0.894
 2150SOL    HW1 6536   1.398   6.228   0.871
 2150SOL    HW2 6537   1.257   6.250   0.820
 2151SOL     OW 6538   1.288   6.739   0.444
 2151SOL    HW1 6539   1.306   6.826   0.410
 2151SOL    HW2 6540   1.206   6.713   0.402
 2152SOL     OW 6541   1.525   5.950   1.635
 2152SOL    HW1 6542   1.546   5.947   1.728
 2152SOL    HW2 6543   1.534   5.859   1.605
 2153SOL     OW 6544   0.241   6.330   1.761
 2153SOL    HW1 6545   0.207   6.243   1.781
 2153SOL    HW2 6546   0.184   6.362   1.691
 2154SOL     OW 6547   1.047   6.526   1.474
 2154SOL    HW1 6548   1.009   6.438   1.465
 2154SOL    HW2 6549   0.986   6.583   1.427
 2155SOL     OW 6550   0.797   5.157   2.234
 2155SOL    HW1 6551   0.809   5.097   2.161
 2155SOL    HW2 6552   0.884   5.192   2.251
 2156SOL     OW 6553   1.564   6.243   0.843
 2156SOL    HW1 6554   1.637   6.236   0.905
 2156SOL    HW2 6555   1.601   6.291   0.768
 2157SOL     OW 6556   1.892   5.827   2.007
 2157SOL    HW1 6557   1.809   5.788   2.035
 2157SOL    HW2 6558   1.959   5.769   2.043
 2158SOL     OW 6559   0.603   6.040   0.630
 2158SOL    HW1 6560   0.576   6.025   0.540
 2158SOL    HW2 6561   0.698   6.029   0.629
 2159SOL     OW 6562   0.417   5.677   0.434
 2159SOL    HW1 6563   0.499   5.674   0.485
 2159SOL    HW2 6564   0.445   5.698   0.345
 2160SOL     OW 6565   2.263   5.093   0.930
 2160SOL    HW1 6566   2.228   5.179   0.953
 2160SOL    HW2 6567   2.334   5.111   0.868
 2161SOL     OW 6568   0.682   5.074   0.295
 2161SOL    HW1 6569   0.725   5.109   0.218
 2161SOL    HW2 6570   0.671   5.149   0.353
 2162SOL     OW 6571   0.680   6.521   1.953
 2162SOL    HW1 6572   0.633   6.438   1.944
 2162SOL    HW2 6573   0.636   6.566   2.025
 2163SOL     OW 6574   2.403   5.749   0.101
 2163SOL    HW1 6575   2.389   5.657   0.082
 2163SOL    HW2 6576   2.437   5.786   0.019
 2164SOL     OW 6577   1.846   5.064   0.436
 2164SOL    HW1 6578   1.901   4.985   0.438
 2164SOL    HW2 6579   1.902   5.131   0.398
 2165SOL     OW 6580   1.742   5.447   2.243
 2165SOL    HW1 6581   1.803   5.374   2.253
 2165SOL    HW2 6582   1.662   5.417   2.286
 2166SOL     OW 6583   0.016   5.527   0.823
 2166SOL    HW1 6584   0.046   5.599   0.768
 2166SOL    HW2 6585   0.031   5.448   0.770
 2167SOL     OW 6586   2.250   5.113   0.168
 2167SOL    HW1 6587   2.319   5.138   0.229
 2167SOL    HW2 6588   2.183   5.073   0.223
 2168SOL     OW 6589   1.407   5.663   1.555
 2168SOL    HW1 6590   1.381   5.595   1.616
 2168SOL    HW2 6591   1.405   5.621   1.469
 2169SOL     OW 6592   1.886   5.173   0.812
 2169SOL    HW1 6593   1.842   5.258   0.822
 2169SOL    HW2 6594   1.907   5.146   0.901
 2170SOL     OW 6595   2.079   6.098   0.844
 2170SOL    HW1 6596   2.060   6.006   0.828
 2170SOL    HW2 6597   2.173   6.106   0.833
 2171SOL     OW 6598   0.129   5.463   1.551
 2171SOL    HW1 6599   0.190   5.518   1.503
 2171SOL    HW2 6600   0.097   5.399   1.487
 2172SOL     OW 6601   1.403   5.542   1.303
 2172SOL    HW1 6602   1.485   5.541   1.253
 2172SOL    HW2 6603   1.334   5.531   1.237
 2173SOL     OW 6604   1.107   6.622   0.197
 2173SOL    HW1 6605   1.135   6.546   0.147
 2173SOL    HW2 6606   1.047   6.587   0.263
 2174SOL     OW 6607   0.205   6.215   2.116
 2174SOL    HW1 6608   0.259   6.282   2.158
 2174SOL    HW2 6609   0.245   6.204   2.029
 2175SOL     OW 6610   0.731   5.121   1.332
 2175SOL    HW1 6611   0.717   5.209   1.367
 2175SOL    HW2 6612   0.660   5.108   1.269
 2176SOL     OW 6613   1.413   5.365   0.363
 2176SOL    HW1 6614   1.437   5.445   0.408
 2176SOL    HW2 6615   1.478   5.356   0.293
 2177SOL     OW 6616   1.374   6.148   1.556
 2177SOL    HW1 6617   1.445   6.087   1.576
 2177SOL    HW2 6618   1.417   6.222   1.514
 2178SOL     OW 6619   1.036   6.635   2.267
 2178SOL    HW1 6620   1.006   6.557   2.219
 2178SOL    HW2 6621   1.129   6.641   2.248
 2179SOL     OW 6622   1.655   5.534   1.199
 2179SOL    HW1 6623   1.735   5.559   1.245
 2179SOL    HW2 6624   1.627   5.612   1.153
 2180SOL     OW 6625   1.613   5.836   0.143
 2180SOL    HW1 6626   1.586   5.877   0.061
 2180SOL    HW2 6627   1.587   5.898   0.211
 2181SOL     OW 6628   2.261   6.617   1.665
 2181SOL    HW1 6629   2.201   6.649   1.597
 2181SOL    HW2 6630   2.222   6.647   1.747
 2182SOL     OW 6631   0.018   6.806   1.125
 2182SOL    HW1 6632  -0.017   6.836   1.041
 2182SOL    HW2 6633   0.087   6.745   1.102
 2183SOL     OW 6634   0.730   5.204   0.048
 2183SOL    HW1 6635   0.652   5.258   0.033
 2183SOL    HW2 6636   0.761   5.182  -0.040
 2184SOL     OW 6637   1.093   5.316   1.289
 2184SOL    HW1 6638   1.076   5.232   1.246
 2184SOL    HW2 6639   1.137   5.369   1.223
 2185SOL     OW 6640   2.189   6.242   1.464
 2185SOL    HW1 6641   2.238   6.241   1.381
 2185SOL    HW2 6642   2.236   6.181   1.520
 2186SOL     OW 6643   0.413   5.799   1.947
 2186SOL    HW1 6644   0.427   5.705   1.950
 2186SOL    HW2 6645   0.380   5.815   1.858
 2187SOL     OW 6646   0.260   6.278   0.939
 2187SOL    HW1 6647   0.351   6.249   0.934
 2187SOL    HW2 6648   0.242   6.316   0.852
 2188SOL     OW 6649   1.032   5.283   0.645
 2188SOL    HW1 6650   1.095   5.299   0.575
 2188SOL    HW2 6651   0.948   5.311   0.610
 2189SOL     OW 6652   0.289   5.369   2.360
 2189SOL    HW1 6653   0.212   5.396   2.312
 2189SOL    HW2 6654   0.300   5.276   2.339
 2190SOL     OW 6655   1.444   5.582   0.816
 2190SOL    HW1 6656   1.349   5.590   0.829
 2190SOL    HW2 6657   1.482   5.614   0.898
 2191SOL     OW 6658   1.741   5.145   2.243
 2191SOL    HW1 6659   1.738   5.101   2.328
 2191SOL    HW2 6660   1.683   5.092   2.187
 2192SOL     OW 6661   0.668   5.199   0.783
 2192SOL    HW1 6662   0.640   5.107   0.787
 2192SOL    HW2 6663   0.731   5.208   0.855
 2193SOL     OW 6664   2.075   5.023   0.649
 2193SOL    HW1 6665   1.999   5.079   0.667
 2193SOL    HW2 6666   2.132   5.036   0.725
 2194SOL     OW 6667   0.646   6.319   0.048
 2194SOL    HW1 6668   0.621   6.388   0.110
 2194SOL    HW2 6669   0.633   6.359  -0.038
 2195SOL     OW 6670   2.314   5.357   1.594
 2195SOL    HW1 6671   2.375   5.284   1.594
 2195SOL    HW2 6672   2.230   5.317   1.572
 2196SOL     OW 6673   0.098   6.103   1.809
 2196SOL    HW1 6674   0.025   6.065   1.857
 2196SOL    HW2 6675   0.112   6.042   1.736
 2197SOL     OW 6676   1.589   5.560   0.126
 2197SOL    HW1 6677   1.593   5.656   0.125
 2197SOL    HW2 6678   1.670   5.533   0.169
 2198SOL     OW 6679   1.537   5.190   1.688
 2198SOL    HW1 6680   1.543   5.278   1.653
 2198SOL    HW2 6681   1.480   5.198   1.765
 2199SOL     OW 6682   2.154   5.597   1.144
 2199SOL    HW1 6683   2.112   5.681   1.131
 2199SOL    HW2 6684   2.213   5.587   1.069
 2200SOL     OW 6685   0.852   6.091   0.557
 2200SOL    HW1 6686   0.895   6.013   0.523
 2200SOL    HW2 6687   0.918   6.132   0.614
 2201SOL     OW 6688   2.065   6.255   2.398
 2201SOL    HW1 6689   2.074   6.176   2.451
 2201SOL    HW2 6690   2.144   6.305   2.416
 2202SOL     OW 6691   0.692   6.235   1.574
 2202SOL    HW1 6692   0.649   6.321   1.581
 2202SOL    HW2 6693   0.785   6.256   1.564
 2203SOL     OW 6694   1.146   6.424   0.758
 2203SOL    HW1 6695   1.065   6.435   0.809
 2203SOL    HW2 6696   1.215   6.455   0.817
 2204SOL     OW 6697   1.242   5.472   1.101
 2204SOL    HW1 6698   1.245   5.386   1.058
 2204SOL    HW2 6699   1.241   5.535   1.028
 2205SOL     OW 6700   1.847   5.801   0.241
 2205SOL    HW1 6701   1.864   5.707   0.240
 2205SOL    HW2 6702   1.771   5.812   0.183
 2206SOL     OW 6703   0.519   6.322   1.868
 2206SOL    HW1 6704   0.442   6.364   1.830
 2206SOL    HW2 6705   0.488   6.234   1.892
 2207SOL     OW 6706   0.034   5.742   1.564
 2207SOL    HW1 6707  -0.049   5.704   1.535
 2207SOL    HW2 6708   0.064   5.794   1.489
 2208SOL     OW 6709   1.711   6.254   1.076
 2208SOL    HW1 6710   1.728   6.182   1.137
 2208SOL    HW2 6711   1.798   6.280   1.046
 2209SOL     OW 6712   2.388   6.390   0.220
 2209SOL    HW1 6713   2.439   6.310   0.213
 2209SOL    HW2 6714   2.343   6.398   0.136
 2210SOL     OW 6715   1.154   5.036   0.675
 2210SOL    HW1 6716   1.110   5.121   0.673
 2210SOL    HW2 6717   1.242   5.054   0.640
 2211SOL     OW 6718   0.190   4.988   0.014
 2211SOL    HW1 6719   0.267   5.039   0.039
 2211SOL    HW2 6720   0.207   4.963  -0.077
 2212SOL     OW 6721   1.878   6.169   0.252
 2212SOL    HW1 6722   1.914   6.127   0.173
 2212SOL    HW2 6723   1.808   6.110   0.280
 2213SOL     OW 6724   1.592   5.729   2.048
 2213SOL    HW1 6725   1.626   5.640   2.034
 2213SOL    HW2 6726   1.554   5.726   2.136
 2214SOL     OW 6727   0.893   6.638   1.873
 2214SOL    HW1 6728   0.805   6.602   1.888
 2214SOL    HW2 6729   0.949   6.589   1.933
 2215SOL     OW 6730   0.731   5.722   2.196
 2215SOL    HW1 6731   0.746   5.697   2.288
 2215SOL    HW2 6732   0.659   5.665   2.168
 2216SOL     OW 6733   0.984   6.236   1.088
 2216SOL    HW1 6734   1.036   6.223   1.009
 2216SOL    HW2 6735   0.908   6.285   1.058
 2217SOL     OW 6736   1.588   5.418   1.552
 2217SOL    HW1 6737   1.556   5.454   1.469
 2217SOL    HW2 6738   1.605   5.495   1.606
 2218SOL     OW 6739   0.096   5.783   1.270
 2218SOL    HW1 6740   0.102   5.816   1.181
 2218SOL    HW2 6741   0.005   5.755   1.279
 2219SOL     OW 6742   1.828   5.519   0.249
 2219SOL    HW1 6743   1.907   5.496   0.200
 2219SOL    HW2 6744   1.850   5.500   0.340
 2220SOL     OW 6745   1.686   5.939   0.624
 2220SOL    HW1 6746   1.744   6.014   0.638
 2220SOL    HW2 6747   1.720   5.871   0.681
 2221SOL     OW 6748   1.286   6.266   1.281
 2221SOL    HW1 6749   1.283   6.341   1.341
 2221SOL    HW2 6750   1.199   6.265   1.240
 2222SOL     OW 6751   0.449   6.007   1.019
 2222SOL    HW1 6752   0.515   5.972   1.079
 2222SOL    HW2 6753   0.395   6.065   1.074
 2223SOL     OW 6754   0.361   6.388   2.230
 2223SOL    HW1 6755   0.453   6.383   2.207
 2223SOL    HW2 6756   0.327   6.461   2.177
 2224SOL     OW 6757   1.855   6.140   0.646
 2224SOL    HW1 6758   1.916   6.143   0.720
 2224SOL    HW2 6759   1.810   6.224   0.649
 2225SOL     OW 6760   0.642   6.019   1.426
 2225SOL    HW1 6761   0.718   6.074   1.410
 2225SOL    HW2 6762   0.593   6.065   1.494
 2226SOL     OW 6763   1.732   6.096   1.326
 2226SOL    HW1 6764   1.639   6.088   1.303
 2226SOL    HW2 6765   1.732   6.110   1.421
 2227SOL     OW 6766   1.223   5.093   1.764
 2227SOL    HW1 6767   1.137   5.102   1.722
 2227SOL    HW2 6768   1.220   5.007   1.805
 2228SOL     OW 6769   2.274   6.018   0.480
 2228SOL    HW1 6770   2.186   5.981   0.483
 2228SOL    HW2 6771   2.298   6.017   0.387
 2229SOL     OW 6772   2.448   5.208   0.333
 2229SOL    HW1 6773   2.509   5.254   0.391
 2229SOL    HW2 6774   2.487   5.121   0.321
 2230SOL     OW 6775   1.347   6.309   0.275
 2230SOL    HW1 6776   1.291   6.362   0.218
 2230SOL    HW2 6777   1.319   6.332   0.363
 2231SOL     OW 6778   0.367   6.283   1.409
 2231SOL    HW1 6779   0.418   6.323   1.480
 2231SOL    HW2 6780   0.282   6.327   1.414
 2232SOL     OW 6781   1.239   5.200   2.454
 2232SOL    HW1 6782   1.237   5.142   2.530
 2232SOL    HW2 6783   1.323   5.246   2.461
 2233SOL     OW 6784   0.922   6.523   0.363
 2233SOL    HW1 6785   0.850   6.468   0.393
 2233SOL    HW2 6786   0.958   6.561   0.444
 2234SOL     OW 6787   1.665   5.378   0.750
 2234SOL    HW1 6788   1.632   5.298   0.708
 2234SOL    HW2 6789   1.589   5.436   0.753
 2235SOL     OW 6790   0.745   5.895   0.298
 2235SOL    HW1 6791   0.657   5.926   0.316
 2235SOL    HW2 6792   0.777   5.952   0.228
 2236SOL     OW 6793   0.247   5.012   0.808
 2236SOL    HW1 6794   0.185   5.026   0.880
 2236SOL    HW2 6795   0.195   4.969   0.740
 2237SOL     OW 6796   1.234   5.374   1.788
 2237SOL    HW1 6797   1.200   5.392   1.700
 2237SOL    HW2 6798   1.259   5.282   1.786
 2238SOL     OW 6799   0.500   6.209   0.834
 2238SOL    HW1 6800   0.512   6.151   0.760
 2238SOL    HW2 6801   0.562   6.177   0.900
 2239SOL     OW 6802   0.588   5.049   1.802
 2239SOL    HW1 6803   0.626   5.017   1.720
 2239SOL    HW2 6804   0.494   5.046   1.787
 2240SOL     OW 6805   0.129   5.589   2.023
 2240SOL    HW1 6806   0.122   5.561   1.931
 2240SOL    HW2 6807   0.217   5.627   2.030
 2241SOL     OW 6808   1.807   6.125   1.608
 2241SOL    HW1 6809   1.898   6.154   1.623
 2241SOL    HW2 6810   1.804   6.038   1.647
 2242SOL     OW 6811   1.547   5.954   0.381
 2242SOL    HW1 6812   1.567   6.047   0.371
 2242SOL    HW2 6813   1.600   5.926   0.455
 2243SOL     OW 6814   0.275   5.069   1.137
 2243SOL    HW1 6815   0.296   5.141   1.077
 2243SOL    HW2 6816   0.198   5.027   1.097
 2244SOL     OW 6817   0.254   5.521   0.604
 2244SOL    HW1 6818   0.318   5.503   0.673
 2244SOL    HW2 6819   0.291   5.596   0.556
 2245SOL     OW 6820   0.402   5.821   0.196
 2245SOL    HW1 6821   0.454   5.778   0.128
 2245SOL    HW2 6822   0.329   5.860   0.148
 2246SOL     OW 6823   1.273   5.983   1.740
 2246SOL    HW1 6824   1.359   5.954   1.771
 2246SOL    HW2 6825   1.293   6.045   1.670
 2247SOL     OW 6826   2.006   5.235   0.307
 2247SOL    HW1 6827   2.043   5.253   0.221
 2247SOL    HW2 6828   1.986   5.321   0.344
 2248SOL     OW 6829   0.412   6.436   1.173
 2248SOL    HW1 6830   0.359   6.366   1.212
 2248SOL    HW2 6831   0.493   6.436   1.224
 2249SOL     OW 6832   1.882   5.129   2.014
 2249SOL    HW1 6833   1.842   5.133   2.101
 2249SOL    HW2 6834   1.829   5.066   1.966
 2250SOL     OW 6835   0.740   6.341   1.031
 2250SOL    HW1 6836   0.676   6.332   1.102
 2250SOL    HW2 6837   0.725   6.264   0.976
 2251SOL     OW 6838   2.444   6.235   0.554
 2251SOL    HW1 6839   2.401   6.152   0.532
 2251SOL    HW2 6840   2.373   6.294   0.579
 2252SOL     OW 6841   0.324   6.282   0.087
 2252SOL    HW1 6842   0.385   6.257   0.157
 2252SOL    HW2 6843   0.335   6.377   0.079
 2253SOL     OW 6844   2.049   5.435   1.722
 2253SOL    HW1 6845   1.988   5.364   1.741
 2253SOL    HW2 6846   2.024   5.466   1.634
 2254SOL     OW 6847   0.408   5.301   0.352
 2254SOL    HW1 6848   0.414   5.211   0.322
 2254SOL    HW2 6849   0.484   5.311   0.410
 2255SOL     OW 6850   1.361   5.160   1.115
 2255SOL    HW1 6851   1.451   5.180   1.140
 2255SOL    HW2 6852   1.354   5.193   1.025
 2256SOL     OW 6853   0.556   5.052   1.092
 2256SOL    HW1 6854   0.486   5.017   1.148
 2256SOL    HW2 6855   0.539   5.013   1.006
 2257SOL     OW 6856   1.035   5.855   2.482
 2257SOL    HW1 6857   1.007   5.935   2.527
 2257SOL    HW2 6858   0.985   5.785   2.524
 2258SOL     OW 6859   2.473   6.367   1.939
 2258SOL    HW1 6860   2.548   6.329   1.985
 2258SOL    HW2 6861   2.472   6.323   1.854
 2259SOL     OW 6862   0.861   6.260   1.856
 2259SOL    HW1 6863   0.802   6.329   1.826
 2259SOL    HW2 6864   0.949   6.295   1.838
 2260SOL     OW 6865   0.523   5.310   2.088
 2260SOL    HW1 6866   0.469   5.231   2.086
 2260SOL    HW2 6867   0.591   5.291   2.153
 2261SOL     OW 6868   0.896   5.839   0.512
 2261SOL    HW1 6869   0.863   5.853   0.423
 2261SOL    HW2 6870   0.962   5.771   0.502
 2262SOL     OW 6871   0.650   5.798   1.302
 2262SOL    HW1 6872   0.561   5.778   1.272
 2262SOL    HW2 6873   0.640   5.878   1.353
 2263SOL     OW 6874   0.387   6.671   0.464
 2263SOL    HW1 6875   0.477   6.703   0.459
 2263SOL    HW2 6876   0.387   6.610   0.538
 2264SOL     OW 6877   0.877   6.134   1.308
 2264SOL    HW1 6878   0.954   6.122   1.362
 2264SOL    HW2 6879   0.908   6.183   1.232
 2265SOL     OW 6880   0.911   5.180   1.713
 2265SOL    HW1 6881   0.858   5.227   1.777
 2265SOL    HW2 6882   0.898   5.229   1.632
 2266SOL     OW 6883   2.380   6.360   1.677
 2266SOL    HW1 6884   2.321   6.435   1.664
 2266SOL    HW2 6885   2.322   6.284   1.678
 2267SOL     OW 6886   0.938   6.502   0.936
 2267SOL    HW1 6887   0.853   6.485   0.976
 2267SOL    HW2 6888   0.993   6.533   1.008
 2268SOL     OW 6889   1.978   6.326   0.979
 2268SOL    HW1 6890   1.998   6.328   1.073
 2268SOL    HW2 6891   2.013   6.243   0.949
 2269SOL     OW 6892   0.994   5.852   2.207
 2269SOL    HW1 6893   0.898   5.857   2.202
 2269SOL    HW2 6894   1.013   5.860   2.301
 2270SOL     OW 6895   0.175   5.260   0.575
 2270SOL    HW1 6896   0.231   5.337   0.583
 2270SOL    HW2 6897   0.236   5.187   0.568
 2271SOL     OW 6898   1.594   6.301   1.672
 2271SOL    HW1 6899   1.541   6.256   1.737
 2271SOL    HW2 6900   1.671   6.246   1.661
 2272SOL     OW 6901   0.651   6.194   2.214
 2272SOL    HW1 6902   0.613   6.140   2.284
 2272SOL    HW2 6903   0.646   6.139   2.136
 2273SOL     OW 6904   0.237   5.836   0.527
 2273SOL    HW1 6905   0.265   5.853   0.617
 2273SOL    HW2 6906   0.304   5.778   0.492
 2274SOL     OW 6907   1.475   6.405   1.094
 2274SOL    HW1 6908   1.415   6.343   1.136
 2274SOL    HW2 6909   1.548   6.350   1.063
 2275SOL     OW 6910   0.041   6.140   2.301
 2275SOL    HW1 6911   0.105   6.143   2.230
 2275SOL    HW2 6912  -0.025   6.078   2.271
 2276SOL     OW 6913   0.253   6.505   2.000
 2276SOL    HW1 6914   0.257   6.463   1.914
 2276SOL    HW2 6915   0.202   6.584   1.986
 2277SOL     OW 6916   1.843   5.729   2.292
 2277SOL    HW1 6917   1.910   5.700   2.229
 2277SOL    HW2 6918   1.787   5.652   2.304
 2278SOL     OW 6919   1.334   6.442   1.469
 2278SOL    HW1 6920   1.267   6.510   1.481
 2278SOL    HW2 6921   1.369   6.429   1.557
 2279SOL     OW 6922   1.509   6.344   2.137
 2279SOL    HW1 6923   1.557   6.421   2.166
 2279SOL    HW2 6924   1.495   6.293   2.217
 2280SOL     OW 6925   1.262   5.370   1.506
 2280SOL    HW1 6926   1.186   5.313   1.488
 2280SOL    HW2 6927   1.260   5.434   1.435
 2281SOL     OW 6928   0.071   6.086   0.832
 2281SOL    HW1 6929   0.141   6.113   0.890
 2281SOL    HW2 6930   0.098   6.117   0.745
 2282SOL     OW 6931   0.623   6.253   1.266
 2282SOL    HW1 6932   0.696   6.216   1.316
 2282SOL    HW2 6933   0.548   6.197   1.287
 2283SOL     OW 6934   1.577   5.908   2.381
 2283SOL    HW1 6935   1.631   5.900   2.302
 2283SOL    HW2 6936   1.507   5.843   2.369
 2284SOL     OW 6937   1.044   5.600   1.834
 2284SOL    HW1 6938   1.051   5.657   1.758
 2284SOL    HW2 6939   1.078   5.516   1.803
 2285SOL     OW 6940   0.440   5.537   1.134
 2285SOL    HW1 6941   0.507   5.562   1.070
 2285SOL    HW2 6942   0.358   5.567   1.095
 2286SOL     OW 6943   0.715   6.312   0.428
 2286SOL    HW1 6944   0.759   6.237   0.467
 2286SOL    HW2 6945   0.684   6.363   0.503
 2287SOL     OW 6946   1.099   6.514   2.020
 2287SOL    HW1 6947   1.169   6.577   2.009
 2287SOL    HW2 6948   1.129   6.455   2.090
 2288SOL     OW 6949   1.316   5.921   0.028
 2288SOL    HW1 6950   1.253   5.861  -0.012
 2288SOL    HW2 6951   1.268   5.962   0.100
 2289SOL     OW 6952   1.144   5.678   0.591
 2289SOL    HW1 6953   1.200   5.752   0.568
 2289SOL    HW2 6954   1.169   5.609   0.529
 2290SOL     OW 6955   1.192   5.667   0.242
 2290SOL    HW1 6956   1.098   5.660   0.259
 2290SOL    HW2 6957   1.222   5.737   0.300
 2291SOL     OW 6958   1.849   5.671   1.332
 2291SOL    HW1 6959   1.910   5.728   1.285
 2291SOL    HW2 6960   1.903   5.598   1.362
 2292SOL     OW 6961   1.148   5.989   1.117
 2292SOL    HW1 6962   1.108   6.067   1.155
 2292SOL    HW2 6963   1.119   5.917   1.173
 2293SOL     OW 6964   1.046   5.243   2.289
 2293SOL    HW1 6965   1.086   5.310   2.233
 2293SOL    HW2 6966   1.115   5.217   2.349
 2294SOL     OW 6967   2.211   6.494   1.988
 2294SOL    HW1 6968   2.288   6.474   1.935
 2294SOL    HW2 6969   2.160   6.412   1.988
 2295SOL     OW 6970   0.161   5.672   0.233
 2295SOL    HW1 6971   0.081   5.694   0.185
 2295SOL    HW2 6972   0.215   5.751   0.226
 2296SOL     OW 6973   0.099   6.286   1.157
 2296SOL    HW1 6974   0.140   6.302   1.071
 2296SOL    HW2 6975   0.134   6.201   1.184
 2297SOL     OW 6976   2.357   5.365   1.206
 2297SOL    HW1 6977   2.286   5.359   1.143
 2297SOL    HW2 6978   2.364   5.277   1.243
 2298SOL     OW 6979   1.135   6.342   1.793
 2298SOL    HW1 6980   1.214   6.296   1.820
 2298SOL    HW2 6981   1.133   6.420   1.848
 2299SOL     OW 6982   1.408   5.951   1.015
 2299SOL    HW1 6983   1.407   6.033   0.966
 2299SOL    HW2 6984   1.317   5.940   1.044
 2300SOL     OW 6985   0.288   5.661   1.401
 2300SOL    HW1 6986   0.231   5.709   1.342
 2300SOL    HW2 6987   0.328   5.593   1.346
 2301SOL     OW 6988   1.380   5.214   0.626
 2301SOL    HW1 6989   1.401   5.271   0.551
 2301SOL    HW2 6990   1.436   5.138   0.615
 2302SOL     OW 6991   0.399   5.518   0.162
 2302SOL    HW1 6992   0.389   5.452   0.231
 2302SOL    HW2 6993   0.322   5.574   0.173
 2303SOL     OW 6994   0.440   5.063   0.081
 2303SOL    HW1 6995   0.480   5.051  -0.006
 2303SOL    HW2 6996   0.514   5.080   0.139
 2304SOL     OW 6997   1.081   6.285   2.260
 2304SOL    HW1 6998   0.994   6.324   2.250
 2304SOL    HW2 6999   1.082   6.211   2.200
 2305SOL     OW 7000   1.290   5.862   0.424
 2305SOL    HW1 7001   1.381   5.884   0.407
 2305SOL    HW2 7002   1.240   5.936   0.389
 2306SOL     OW 7003   0.927   5.341   0.213
 2306SOL    HW1 7004   0.969   5.406   0.157
 2306SOL    HW2 7005   0.874   5.288   0.153
 2307SOL     OW 7006   2.256   6.580   1.162
 2307SOL    HW1 7007   2.162   6.593   1.154
 2307SOL    HW2 7008   2.293   6.625   1.086
 2308SOL     OW 7009   1.071   5.770   1.322
 2308SOL    HW1 7010   1.022   5.790   1.402
 2308SOL    HW2 7011   1.163   5.782   1.347
 2309SOL     OW 7012   0.306   5.288   0.995
 2309SOL    HW1 7013   0.246   5.359   1.018
 2309SOL    HW2 7014   0.354   5.321   0.919
 2310SOL     OW 7015   0.277   5.378   1.306
 2310SOL    HW1 7016   0.297   5.389   1.213
 2310SOL    HW2 7017   0.362   5.367   1.348
 2311SOL     OW 7018   1.419   5.695   2.268
 2311SOL    HW1 7019   1.347   5.693   2.205
 2311SOL    HW2 7020   1.382   5.657   2.348
 2312SOL     OW 7021   0.781   6.071   0.088
 2312SOL    HW1 7022   0.744   6.160   0.092
 2312SOL    HW2 7023   0.710   6.017   0.055
 2313SOL     OW 7024   2.321   5.329   0.552
 2313SOL    HW1 7025   2.319   5.281   0.470
 2313SOL    HW2 7026   2.364   5.269   0.613
 2314SOL     OW 7027   0.184   5.945   0.111
 2314SOL    HW1 7028   0.166   6.028   0.153
 2314SOL    HW2 7029   0.124   5.941   0.037
 2315SOL     OW 7030   1.198   6.057   0.241
 2315SOL    HW1 7031   1.277   6.112   0.248
 2315SOL    HW2 7032   1.137   6.109   0.189
 2316SOL     OW 7033   1.654   6.505   0.231
 2316SOL    HW1 7034   1.663   6.443   0.159
 2316SOL    HW2 7035   1.580   6.561   0.206
 2317SOL     OW 7036   0.046   4.985   1.002
 2317SOL    HW1 7037   0.052   4.891   0.981
 2317SOL    HW2 7038  -0.046   5.006   0.987
 2318SOL     OW 7039   1.303   5.519   0.028
 2318SOL    HW1 7040   1.267   5.581   0.091
 2318SOL    HW2 7041   1.384   5.488   0.067
 2319SOL     OW 7042   2.154   5.202   2.094
 2319SOL    HW1 7043   2.078   5.166   2.048
 2319SOL    HW2 7044   2.201   5.126   2.128
 2320SOL     OW 7045   2.097   5.158   1.475
 2320SOL    HW1 7046   2.062   5.081   1.429
 2320SOL    HW2 7047   2.188   5.164   1.446
 2321SOL     OW 7048   2.158   5.325   1.027
 2321SOL    HW1 7049   2.080   5.290   1.070
 2321SOL    HW2 7050   2.130   5.411   0.994
 2322SOL     OW 7051   0.896   5.347   1.488
 2322SOL    HW1 7052   0.856   5.430   1.465
 2322SOL    HW2 7053   0.961   5.331   1.419
 2323SOL     OW 7054   2.070   6.338   0.358
 2323SOL    HW1 7055   2.010   6.268   0.335
 2323SOL    HW2 7056   2.128   6.300   0.423
 2324SOL     OW 7057   0.935   5.857   0.950
 2324SOL    HW1 7058   0.931   5.770   0.991
 2324SOL    HW2 7059   0.980   5.842   0.867
 2325SOL     OW 7060   2.343   5.993   2.144
 2325SOL    HW1 7061   2.351   5.951   2.058
 2325SOL    HW2 7062   2.253   6.024   2.148
 2326SOL     OW 7063   0.730   6.075   1.030
 2326SOL    HW1 7064   0.786   6.011   0.985
 2326SOL    HW2 7065   0.764   6.078   1.119
 2327SOL     OW 7066   1.153   5.635   2.076
 2327SOL    HW1 7067   1.110   5.711   2.114
 2327SOL    HW2 7068   1.101   5.614   1.999
 2328SOL     OW 7069   0.667   5.543   0.236
 2328SOL    HW1 7070   0.671   5.569   0.328
 2328SOL    HW2 7071   0.583   5.498   0.227
 2329SOL     OW 7072   1.658   5.642   1.743
 2329SOL    HW1 7073   1.565   5.652   1.766
 2329SOL    HW2 7074   1.697   5.600   1.819
 2330SOL     OW 7075   1.045   6.082   0.856
 2330SOL    HW1 7076   1.140   6.092   0.851
 2330SOL    HW2 7077   1.032   6.008   0.914
 2331SOL     OW 7078   2.043   5.853   0.430
 2331SOL    HW1 7079   1.958   5.834   0.390
 2331SOL    HW2 7080   2.095   5.774   0.413
 2332SOL     OW 7081   1.808   5.262   1.454
 2332SOL    HW1 7082   1.866   5.234   1.525
 2332SOL    HW2 7083   1.723   5.275   1.496
 2333SOL     OW 7084   1.826   5.811   1.584
 2333SOL    HW1 7085   1.805   5.805   1.491
 2333SOL    HW2 7086   1.759   5.758   1.627
 2334SOL     OW 7087   0.426   5.719   2.379
 2334SOL    HW1 7088   0.357   5.750   2.320
 2334SOL    HW2 7089   0.403   5.628   2.397
 2335SOL     OW 7090   1.008   5.383   0.877
 2335SOL    HW1 7091   0.947   5.339   0.936
 2335SOL    HW2 7092   0.989   5.346   0.791
 2336SOL     OW 7093   0.222   6.037   1.244
 2336SOL    HW1 7094   0.192   5.947   1.260
 2336SOL    HW2 7095   0.225   6.077   1.331
 2337SOL     OW 7096   2.237   5.564   0.881
 2337SOL    HW1 7097   2.330   5.563   0.858
 2337SOL    HW2 7098   2.209   5.654   0.862
 2338SOL     OW 7099   2.392   5.326   2.443
 2338SOL    HW1 7100   2.418   5.235   2.459
 2338SOL    HW2 7101   2.436   5.350   2.361
 2339SOL     OW 7102   0.914   5.670   0.284
 2339SOL    HW1 7103   0.851   5.743   0.287
 2339SOL    HW2 7104   0.878   5.610   0.219
 2340SOL     OW 7105   2.224   6.091   1.720
 2340SOL    HW1 7106   2.282   6.019   1.745
 2340SOL    HW2 7107   2.136   6.053   1.725
 2341SOL     OW 7108   2.048   5.634   2.137
 2341SOL    HW1 7109   2.048   5.571   2.209
 2341SOL    HW2 7110   2.116   5.603   2.077
 2342SOL     OW 7111   0.691   5.678   1.746
 2342SOL    HW1 7112   0.748   5.633   1.809
 2342SOL    HW2 7113   0.700   5.771   1.768
 2343SOL     OW 7114   2.291   5.837   0.832
 2343SOL    HW1 7115   2.345   5.816   0.756
 2343SOL    HW2 7116   2.201   5.827   0.802
 2344SOL     OW 7117   1.732   4.982   1.784
 2344SOL    HW1 7118   1.697   4.940   1.862
 2344SOL    HW2 7119   1.660   5.034   1.750
 2345SOL     OW 7120   2.361   5.123   1.378
 2345SOL    HW1 7121   2.455   5.135   1.387
 2345SOL    HW2 7122   2.351   5.046   1.323
 2346SOL     OW 7123   2.247   4.987   2.218
 2346SOL    HW1 7124   2.320   5.030   2.262
 2346SOL    HW2 7125   2.216   4.921   2.280
 2347SOL     OW 7126   2.132   5.374   2.331
 2347SOL    HW1 7127   2.214   5.346   2.371
 2347SOL    HW2 7128   2.131   5.330   2.246
 2348SOL     OW 7129   1.465   5.582   0.526
 2348SOL    HW1 7130   1.548   5.629   0.522
 2348SOL    HW2 7131   1.440   5.587   0.618
 2349SOL     OW 7132   2.318   6.001   0.180
 2349SOL    HW1 7133   2.391   6.054   0.146
 2349SOL    HW2 7134   2.344   5.911   0.163
 2350SOL     OW 7135   2.108   5.424   0.678
 2350SOL    HW1 7136   2.178   5.390   0.624
 2350SOL    HW2 7137   2.152   5.466   0.752
 2351SOL     OW 7138   1.095   6.092   2.053
 2351SOL    HW1 7139   1.083   6.099   1.958
 2351SOL    HW2 7140   1.049   6.011   2.077
 2352SOL     OW 7141   1.336   6.557   3.375
 2352SOL    HW1 7142   1.399   6.527   3.440
 2352SOL    HW2 7143   1.287   6.626   3.420
 2353SOL     OW 7144   2.010   6.288   4.152
 2353SOL    HW1 7145   2.066   6.261   4.079
 2353SOL    HW2 7146   2.058   6.262   4.230
 2354SOL     OW 7147   2.228   5.620   4.149
 2354SOL    HW1 7148   2.158   5.563   4.182
 2354SOL    HW2 7149   2.281   5.562   4.094
 2355SOL     OW 7150   1.951   6.276   3.767
 2355SOL    HW1 7151   1.890   6.206   3.788
 2355SOL    HW2 7152   2.021   6.268   3.832
 2356SOL     OW 7153   1.871   6.488   4.014
 2356SOL    HW1 7154   1.920   6.415   4.050
 2356SOL    HW2 7155   1.814   6.517   4.086
 2357SOL     OW 7156   1.433   5.180   4.675
 2357SOL    HW1 7157   1.356   5.228   4.706
 2357SOL    HW2 7158   1.506   5.217   4.725
 2358SOL     OW 7159   0.387   5.908   3.264
 2358SOL    HW1 7160   0.455   5.959   3.221
 2358SOL    HW2 7161   0.378   5.950   3.350
 2359SOL     OW 7162   1.713   5.697   2.972
 2359SOL    HW1 7163   1.709   5.785   3.009
 2359SOL    HW2 7164   1.727   5.711   2.879
 2360SOL     OW 7165   1.615   5.249   3.606
 2360SOL    HW1 7166   1.632   5.339   3.636
 2360SOL    HW2 7167   1.701   5.218   3.577
 2361SOL     OW 7168   1.889   4.995   3.546
 2361SOL    HW1 7169   1.816   4.948   3.586
 2361SOL    HW2 7170   1.954   4.928   3.528
 2362SOL     OW 7171   1.616   4.996   3.810
 2362SOL    HW1 7172   1.659   5.081   3.820
 2362SOL    HW2 7173   1.543   4.999   3.873
 2363SOL     OW 7174   2.330   6.234   3.379
 2363SOL    HW1 7175   2.396   6.171   3.350
 2363SOL    HW2 7176   2.381   6.308   3.411
 2364SOL     OW 7177   1.804   6.226   4.762
 2364SOL    HW1 7178   1.834   6.136   4.775
 2364SOL    HW2 7179   1.876   6.280   4.794
 2365SOL     OW 7180   2.227   5.622   2.887
 2365SOL    HW1 7181   2.240   5.554   2.953
 2365SOL    HW2 7182   2.304   5.615   2.831
 2366SOL     OW 7183   0.703   6.477   3.159
 2366SOL    HW1 7184   0.673   6.514   3.242
 2366SOL    HW2 7185   0.798   6.472   3.168
 2367SOL     OW 7186   0.564   5.701   3.265
 2367SOL    HW1 7187   0.617   5.718   3.343
 2367SOL    HW2 7188   0.505   5.776   3.260
 2368SOL     OW 7189   0.134   6.374   3.220
 2368SOL    HW1 7190   0.073   6.414   3.283
 2368SOL    HW2 7191   0.077   6.327   3.159
 2369SOL     OW 7192   1.193   5.384   4.628
 2369SOL    HW1 7193   1.198   5.344   4.542
 2369SOL    HW2 7194   1.202   5.478   4.612
 2370SOL     OW 7195   0.981   6.812   2.508
 2370SOL    HW1 7196   1.002   6.740   2.568
 2370SOL    HW2 7197   0.965   6.769   2.424
 2371SOL     OW 7198   2.025   6.041   4.607
 2371SOL    HW1 7199   1.976   6.030   4.688
 2371SOL    HW2 7200   1.994   5.972   4.550
 2372SOL     OW 7201   1.961   5.956   4.278
 2372SOL    HW1 7202   1.924   5.901   4.209
 2372SOL    HW2 7203   1.935   5.913   4.360
 2373SOL     OW 7204   1.846   5.282   4.291
 2373SOL    HW1 7205   1.757   5.248   4.288
 2373SOL    HW2 7206   1.883   5.245   4.371
 2374SOL     OW 7207   1.773   5.904   3.634
 2374SOL    HW1 7208   1.746   5.984   3.678
 2374SOL    HW2 7209   1.868   5.901   3.647
 2375SOL     OW 7210   1.572   5.735   3.546
 2375SOL    HW1 7211   1.625   5.798   3.596
 2375SOL    HW2 7212   1.508   5.790   3.499
 2376SOL     OW 7213   0.878   5.982   4.367
 2376SOL    HW1 7214   0.819   5.953   4.436
 2376SOL    HW2 7215   0.865   6.077   4.361
 2377SOL     OW 7216   0.348   5.109   4.562
 2377SOL    HW1 7217   0.344   5.052   4.639
 2377SOL    HW2 7218   0.366   5.050   4.489
 2378SOL     OW 7219   1.291   6.493   4.736
 2378SOL    HW1 7220   1.327   6.404   4.727
 2378SOL    HW2 7221   1.343   6.546   4.676
 2379SOL     OW 7222   0.825   5.420   2.986
 2379SOL    HW1 7223   0.863   5.428   2.899
 2379SOL    HW2 7224   0.781   5.503   3.001
 2380SOL     OW 7225   0.436   6.424   3.069
 2380SOL    HW1 7226   0.514   6.438   3.122
 2380SOL    HW2 7227   0.407   6.335   3.091
 2381SOL     OW 7228   2.455   5.160   3.197
 2381SOL    HW1 7229   2.471   5.074   3.158
 2381SOL    HW2 7230   2.537   5.208   3.183
 2382SOL     OW 7231   0.266   6.132   3.050
 2382SOL    HW1 7232   0.180   6.160   3.018
 2382SOL    HW2 7233   0.277   6.043   3.016
 2383SOL     OW 7234   1.937   6.485   2.585
 2383SOL    HW1 7235   1.931   6.429   2.662
 2383SOL    HW2 7236   1.974   6.429   2.517
 2384SOL     OW 7237   2.151   6.586   2.867
 2384SOL    HW1 7238   2.116   6.498   2.849
 2384SOL    HW2 7239   2.235   6.588   2.822
 2385SOL     OW 7240   1.553   5.963   4.395
 2385SOL    HW1 7241   1.637   6.004   4.411
 2385SOL    HW2 7242   1.555   5.883   4.449
 2386SOL     OW 7243   0.063   5.463   4.279
 2386SOL    HW1 7244   0.079   5.436   4.189
 2386SOL    HW2 7245  -0.022   5.425   4.301
 2387SOL     OW 7246   1.448   5.141   4.413
 2387SOL    HW1 7247   1.451   5.148   4.509
 2387SOL    HW2 7248   1.373   5.084   4.396
 2388SOL     OW 7249   1.277   6.417   3.014
 2388SOL    HW1 7250   1.235   6.414   3.100
 2388SOL    HW2 7251   1.339   6.490   3.020
 2389SOL     OW 7252   1.910   5.417   2.981
 2389SOL    HW1 7253   1.842   5.410   3.048
 2389SOL    HW2 7254   1.992   5.413   3.030
 2390SOL     OW 7255   0.858   6.397   4.681
 2390SOL    HW1 7256   0.835   6.448   4.604
 2390SOL    HW2 7257   0.813   6.314   4.669
 2391SOL     OW 7258   2.262   5.968   3.556
 2391SOL    HW1 7259   2.250   5.935   3.467
 2391SOL    HW2 7260   2.343   6.020   3.552
 2392SOL     OW 7261   2.393   5.877   4.288
 2392SOL    HW1 7262   2.414   5.839   4.203
 2392SOL    HW2 7263   2.379   5.802   4.346
 2393SOL     OW 7264   2.029   5.839   3.229
 2393SOL    HW1 7265   1.951   5.786   3.248
 2393SOL    HW2 7266   2.024   5.856   3.135
 2394SOL     OW 7267   1.075   5.080   3.645
 2394SOL    HW1 7268   1.159   5.092   3.601
 2394SOL    HW2 7269   1.088   5.007   3.704
 2395SOL     OW 7270   1.651   5.138   3.087
 2395SOL    HW1 7271   1.660   5.074   3.158
 2395SOL    HW2 7272   1.718   5.112   3.023
 2396SOL     OW 7273   1.207   6.427   2.509
 2396SOL    HW1 7274   1.179   6.343   2.473
 2396SOL    HW2 7275   1.244   6.474   2.435
 2397SOL     OW 7276   1.788   6.123   4.451
 2397SOL    HW1 7277   1.728   6.186   4.493
 2397SOL    HW2 7278   1.874   6.165   4.457
 2398SOL     OW 7279   1.649   6.294   2.516
 2398SOL    HW1 7280   1.583   6.228   2.496
 2398SOL    HW2 7281   1.676   6.328   2.431
 2399SOL     OW 7282   0.553   5.467   4.134
 2399SOL    HW1 7283   0.567   5.556   4.168
 2399SOL    HW2 7284   0.597   5.410   4.197
 2400SOL     OW 7285   1.282   5.273   3.375
 2400SOL    HW1 7286   1.300   5.249   3.284
 2400SOL    HW2 7287   1.207   5.332   3.370
 2401SOL     OW 7288   0.246   5.223   4.236
 2401SOL    HW1 7289   0.271   5.216   4.329
 2401SOL    HW2 7290   0.254   5.316   4.216
 2402SOL     OW 7291   0.649   5.310   4.341
 2402SOL    HW1 7292   0.606   5.309   4.427
 2402SOL    HW2 7293   0.646   5.219   4.312
 2403SOL     OW 7294   1.730   5.491   4.475
 2403SOL    HW1 7295   1.726   5.463   4.566
 2403SOL    HW2 7296   1.787   5.427   4.432
 2404SOL     OW 7297   0.372   6.099   4.406
 2404SOL    HW1 7298   0.314   6.064   4.338
 2404SOL    HW2 7299   0.441   6.033   4.414
 2405SOL     OW 7300   0.488   5.251   3.974
 2405SOL    HW1 7301   0.509   5.193   4.046
 2405SOL    HW2 7302   0.510   5.339   4.006
 2406SOL     OW 7303   0.743   5.577   3.921
 2406SOL    HW1 7304   0.724   5.656   3.871
 2406SOL    HW2 7305   0.669   5.569   3.983
 2407SOL     OW 7306   2.366   5.704   4.483
 2407SOL    HW1 7307   2.453   5.667   4.497
 2407SOL    HW2 7308   2.315   5.633   4.444
 2408SOL     OW 7309   0.629   5.231   3.007
 2408SOL    HW1 7310   0.706   5.286   3.016
 2408SOL    HW2 7311   0.611   5.200   3.095
 2409SOL     OW 7312   0.068   5.393   4.677
 2409SOL    HW1 7313   0.061   5.308   4.635
 2409SOL    HW2 7314   0.094   5.453   4.606
 2410SOL     OW 7315   2.344   5.476   2.652
 2410SOL    HW1 7316   2.377   5.431   2.575
 2410SOL    HW2 7317   2.377   5.425   2.726
 2411SOL     OW 7318   1.398   6.232   4.388
 2411SOL    HW1 7319   1.435   6.281   4.461
 2411SOL    HW2 7320   1.415   6.140   4.410
 2412SOL     OW 7321   2.340   5.671   3.852
 2412SOL    HW1 7322   2.375   5.584   3.835
 2412SOL    HW2 7323   2.257   5.674   3.805
 2413SOL     OW 7324   1.332   5.050   2.674
 2413SOL    HW1 7325   1.364   5.056   2.763
 2413SOL    HW2 7326   1.389   4.985   2.632
 2414SOL     OW 7327   0.609   5.992   4.247
 2414SOL    HW1 7328   0.671   6.039   4.191
 2414SOL    HW2 7329   0.524   6.005   4.204
 2415SOL     OW 7330   1.621   6.223   2.850
 2415SOL    HW1 7331   1.538   6.266   2.830
 2415SOL    HW2 7332   1.684   6.263   2.790
 2416SOL     OW 7333   0.426   5.529   4.430
 2416SOL    HW1 7334   0.428   5.510   4.336
 2416SOL    HW2 7335   0.456   5.448   4.472
 2417SOL     OW 7336   2.101   5.815   4.024
 2417SOL    HW1 7337   2.009   5.813   4.049
 2417SOL    HW2 7338   2.143   5.750   4.081
 2418SOL     OW 7339   1.111   6.083   3.947
 2418SOL    HW1 7340   1.190   6.135   3.962
 2418SOL    HW2 7341   1.133   5.996   3.980
 2419SOL     OW 7342   2.333   6.274   3.725
 2419SOL    HW1 7343   2.424   6.292   3.704
 2419SOL    HW2 7344   2.286   6.354   3.703
 2420SOL     OW 7345   2.085   6.707   4.337
 2420SOL    HW1 7346   2.112   6.645   4.404
 2420SOL    HW2 7347   1.989   6.700   4.334
 2421SOL     OW 7348   0.902   6.479   2.519
 2421SOL    HW1 7349   0.942   6.400   2.556
 2421SOL    HW2 7350   0.959   6.501   2.445
 2422SOL     OW 7351   1.927   5.245   3.643
 2422SOL    HW1 7352   1.910   5.264   3.736
 2422SOL    HW2 7353   1.931   5.149   3.639
 2423SOL     OW 7354   0.614   5.334   3.624
 2423SOL    HW1 7355   0.576   5.246   3.622
 2423SOL    HW2 7356   0.541   5.391   3.647
 2424SOL     OW 7357   0.511   5.447   3.215
 2424SOL    HW1 7358   0.587   5.389   3.213
 2424SOL    HW2 7359   0.539   5.521   3.268
 2425SOL     OW 7360   1.434   6.140   4.866
 2425SOL    HW1 7361   1.379   6.083   4.920
 2425SOL    HW2 7362   1.512   6.087   4.847
 2426SOL     OW 7363   1.038   6.141   2.508
 2426SOL    HW1 7364   1.049   6.131   2.413
 2426SOL    HW2 7365   0.946   6.120   2.524
 2427SOL     OW 7366   2.061   5.841   3.692
 2427SOL    HW1 7367   2.130   5.894   3.652
 2427SOL    HW2 7368   2.086   5.836   3.785
 2428SOL     OW 7369   1.723   4.996   2.490
 2428SOL    HW1 7370   1.631   4.973   2.485
 2428SOL    HW2 7371   1.755   4.950   2.568
 2429SOL     OW 7372   1.756   5.222   2.639
 2429SOL    HW1 7373   1.820   5.244   2.707
 2429SOL    HW2 7374   1.779   5.134   2.611
 2430SOL     OW 7375   1.174   5.587   3.343
 2430SOL    HW1 7376   1.152   5.620   3.256
 2430SOL    HW2 7377   1.119   5.509   3.354
 2431SOL     OW 7378   1.319   5.881   3.888
 2431SOL    HW1 7379   1.366   5.810   3.932
 2431SOL    HW2 7380   1.368   5.960   3.912
 2432SOL     OW 7381   2.077   5.442   2.590
 2432SOL    HW1 7382   2.089   5.426   2.496
 2432SOL    HW2 7383   2.160   5.480   2.618
 2433SOL     OW 7384   0.589   5.942   4.877
 2433SOL    HW1 7385   0.500   5.976   4.864
 2433SOL    HW2 7386   0.578   5.848   4.889
 2434SOL     OW 7387   0.088   6.375   3.944
 2434SOL    HW1 7388   0.022   6.354   4.010
 2434SOL    HW2 7389   0.063   6.462   3.912
 2435SOL     OW 7390   0.309   5.693   4.173
 2435SOL    HW1 7391   0.216   5.676   4.160
 2435SOL    HW2 7392   0.349   5.674   4.088
 2436SOL     OW 7393   2.010   5.456   3.881
 2436SOL    HW1 7394   2.019   5.450   3.786
 2436SOL    HW2 7395   1.960   5.378   3.905
 2437SOL     OW 7396   0.016   5.564   2.918
 2437SOL    HW1 7397   0.063   5.492   2.960
 2437SOL    HW2 7398   0.078   5.599   2.854
 2438SOL     OW 7399   0.053   5.859   3.474
 2438SOL    HW1 7400  -0.025   5.810   3.447
 2438SOL    HW2 7401   0.047   5.941   3.425
 2439SOL     OW 7402   2.055   5.974   2.585
 2439SOL    HW1 7403   2.139   5.977   2.630
 2439SOL    HW2 7404   2.006   5.904   2.628
 2440SOL     OW 7405   0.505   5.994   2.845
 2440SOL    HW1 7406   0.462   6.077   2.823
 2440SOL    HW2 7407   0.450   5.927   2.804
 2441SOL     OW 7408   1.050   5.853   4.180
 2441SOL    HW1 7409   1.130   5.906   4.186
 2441SOL    HW2 7410   0.988   5.897   4.237
 2442SOL     OW 7411   0.341   5.960   4.150
 2442SOL    HW1 7412   0.268   6.007   4.111
 2442SOL    HW2 7413   0.347   5.879   4.100
 2443SOL     OW 7414   0.152   5.072   3.887
 2443SOL    HW1 7415   0.165   5.067   3.792
 2443SOL    HW2 7416   0.228   5.120   3.919
 2444SOL     OW 7417   0.269   5.842   4.658
 2444SOL    HW1 7418   0.294   5.934   4.673
 2444SOL    HW2 7419   0.293   5.825   4.567
 2445SOL     OW 7420   1.677   6.364   3.097
 2445SOL    HW1 7421   1.694   6.321   3.013
 2445SOL    HW2 7422   1.691   6.457   3.080
 2446SOL     OW 7423   0.976   6.288   4.081
 2446SOL    HW1 7424   1.033   6.324   4.148
 2446SOL    HW2 7425   1.017   6.206   4.055
 2447SOL     OW 7426   0.847   5.213   3.502
 2447SOL    HW1 7427   0.904   5.174   3.568
 2447SOL    HW2 7428   0.767   5.236   3.550
 2448SOL     OW 7429   2.041   6.482   4.724
 2448SOL    HW1 7430   2.075   6.406   4.772
 2448SOL    HW2 7431   2.108   6.500   4.658
 2449SOL     OW 7432   2.327   5.963   3.963
 2449SOL    HW1 7433   2.248   5.931   4.007
 2449SOL    HW2 7434   2.338   5.905   3.888
 2450SOL     OW 7435   2.085   6.245   4.433
 2450SOL    HW1 7436   2.133   6.180   4.382
 2450SOL    HW2 7437   2.065   6.201   4.516
 2451SOL     OW 7438   0.022   5.824   4.823
 2451SOL    HW1 7439   0.093   5.769   4.790
 2451SOL    HW2 7440  -0.036   5.835   4.748
 2452SOL     OW 7441   0.695   5.655   3.508
 2452SOL    HW1 7442   0.752   5.579   3.495
 2452SOL    HW2 7443   0.721   5.691   3.593
 2453SOL     OW 7444   0.075   6.191   2.559
 2453SOL    HW1 7445   0.052   6.178   2.467
 2453SOL    HW2 7446   0.163   6.228   2.557
 2454SOL     OW 7447   2.192   5.493   4.448
 2454SOL    HW1 7448   2.152   5.487   4.361
 2454SOL    HW2 7449   2.177   5.407   4.487
 2455SOL     OW 7450   0.017   5.156   4.544
 2455SOL    HW1 7451   0.031   5.068   4.580
 2455SOL    HW2 7452   0.005   5.142   4.450
 2456SOL     OW 7453   2.225   6.391   3.138
 2456SOL    HW1 7454   2.252   6.358   3.224
 2456SOL    HW2 7455   2.135   6.422   3.151
 2457SOL     OW 7456   0.666   5.673   3.008
 2457SOL    HW1 7457   0.716   5.754   3.012
 2457SOL    HW2 7458   0.645   5.653   3.099
 2458SOL     OW 7459   0.127   4.977   2.768
 2458SOL    HW1 7460   0.124   4.984   2.672
 2458SOL    HW2 7461   0.215   4.942   2.786
 2459SOL     OW 7462   0.267   5.703   3.463
 2459SOL    HW1 7463   0.194   5.765   3.469
 2459SOL    HW2 7464   0.321   5.736   3.391
 2460SOL     OW 7465   1.116   5.309   2.876
 2460SOL    HW1 7466   1.192   5.313   2.819
 2460SOL    HW2 7467   1.041   5.306   2.816
 2461SOL     OW 7468   2.476   5.732   3.135
 2461SOL    HW1 7469   2.503   5.816   3.097
 2461SOL    HW2 7470   2.498   5.667   3.068
 2462SOL     OW 7471   0.102   6.092   3.973
 2462SOL    HW1 7472   0.108   6.184   3.947
 2462SOL    HW2 7473   0.009   6.073   3.973
 2463SOL     OW 7474   0.120   5.445   3.549
 2463SOL    HW1 7475   0.091   5.487   3.469
 2463SOL    HW2 7476   0.041   5.432   3.600
 2464SOL     OW 7477   0.667   5.950   4.555
 2464SOL    HW1 7478   0.693   5.873   4.604
 2464SOL    HW2 7479   0.599   5.919   4.495
 2465SOL     OW 7480   1.481   6.076   3.748
 2465SOL    HW1 7481   1.458   5.996   3.702
 2465SOL    HW2 7482   1.399   6.126   3.751
 2466SOL     OW 7483   0.448   6.264   2.827
 2466SOL    HW1 7484   0.539   6.269   2.855
 2466SOL    HW2 7485   0.408   6.344   2.863
 2467SOL     OW 7486   1.915   5.976   4.847
 2467SOL    HW1 7487   1.982   5.970   4.915
 2467SOL    HW2 7488   1.892   5.885   4.827
 2468SOL     OW 7489   1.412   5.555   4.335
 2468SOL    HW1 7490   1.363   5.480   4.302
 2468SOL    HW2 7491   1.364   5.584   4.412
 2469SOL     OW 7492   1.804   5.707   3.263
 2469SOL    HW1 7493   1.747   5.722   3.339
 2469SOL    HW2 7494   1.770   5.627   3.224
 2470SOL     OW 7495   0.369   6.109   4.835
 2470SOL    HW1 7496   0.296   6.144   4.784
 2470SOL    HW2 7497   0.363   6.154   4.919
 2471SOL     OW 7498   0.042   5.085   4.136
 2471SOL    HW1 7499   0.114   5.143   4.158
 2471SOL    HW2 7500   0.058   5.060   4.045
 2472SOL     OW 7501   0.930   5.604   3.640
 2472SOL    HW1 7502   0.931   5.662   3.716
 2472SOL    HW2 7503   1.016   5.561   3.642
 2473SOL     OW 7504   0.559   5.386   4.932
 2473SOL    HW1 7505   0.497   5.444   4.976
 2473SOL    HW2 7506   0.515   5.362   4.851
 2474SOL     OW 7507   1.306   6.213   3.381
 2474SOL    HW1 7508   1.398   6.228   3.358
 2474SOL    HW2 7509   1.257   6.250   3.307
 2475SOL     OW 7510   1.288   6.739   2.931
 2475SOL    HW1 7511   1.306   6.826   2.897
 2475SOL    HW2 7512   1.206   6.713   2.889
 2476SOL     OW 7513   1.525   5.950   4.122
 2476SOL    HW1 7514   1.546   5.947   4.215
 2476SOL    HW2 7515   1.534   5.859   4.092
 2477SOL     OW 7516   0.241   6.330   4.248
 2477SOL    HW1 7517   0.207   6.243   4.268
 2477SOL    HW2 7518   0.184   6.362   4.178
 2478SOL     OW 7519   1.047   6.526   3.961
 2478SOL    HW1 7520   1.009   6.438   3.952
 2478SOL    HW2 7521   0.986   6.583   3.914
 2479SOL     OW 7522   0.797   5.157   4.721
 2479SOL    HW1 7523   0.809   5.097   4.648
 2479SOL    HW2 7524   0.884   5.192   4.738
 2480SOL     OW 7525   1.564   6.243   3.330
 2480SOL    HW1 7526   1.637   6.236   3.392
 2480SOL    HW2 7527   1.601   6.291   3.255
 2481SOL     OW 7528   1.892   5.827   4.494
 2481SOL    HW1 7529   1.809   5.788   4.522
 2481SOL    HW2 7530   1.959   5.769   4.530
 2482SOL     OW 7531   0.603   6.040   3.117
 2482SOL    HW1 7532   0.576   6.025   3.027
 2482SOL    HW2 7533   0.698   6.029   3.116
 2483SOL     OW 7534   0.417   5.677   2.921
 2483SOL    HW1 7535   0.499   5.674   2.972
 2483SOL    HW2 7536   0.445   5.698   2.832
 2484SOL     OW 7537   2.263   5.093   3.417
 2484SOL    HW1 7538   2.228   5.179   3.440
 2484SOL    HW2 7539   2.334   5.111   3.355
 2485SOL     OW 7540   0.682   5.074   2.782
 2485SOL    HW1 7541   0.725   5.109   2.705
 2485SOL    HW2 7542   0.671   5.149   2.840
 2486SOL     OW 7543   0.680   6.521   4.440
 2486SOL    HW1 7544   0.633   6.438   4.431
 2486SOL    HW2 7545   0.636   6.566   4.512
 2487SOL     OW 7546   2.403   5.749   2.588
 2487SOL    HW1 7547   2.389   5.657   2.569
 2487SOL    HW2 7548   2.437   5.786   2.506
 2488SOL     OW 7549   1.846   5.064   2.923
 2488SOL    HW1 7550   1.901   4.985   2.925
 2488SOL    HW2 7551   1.902   5.131   2.885
 2489SOL     OW 7552   1.742   5.447   4.730
 2489SOL    HW1 7553   1.803   5.374   4.740
 2489SOL    HW2 7554   1.662   5.417   4.773
 2490SOL     OW 7555   0.016   5.527   3.310
 2490SOL    HW1 7556   0.046   5.599   3.255
 2490SOL    HW2 7557   0.031   5.448   3.257
 2491SOL     OW 7558   2.250   5.113   2.655
 2491SOL    HW1 7559   2.319   5.138   2.716
 2491SOL    HW2 7560   2.183   5.073   2.710
 2492SOL     OW 7561   1.407   5.663   4.042
 2492SOL    HW1 7562   1.381   5.595   4.103
 2492SOL    HW2 7563   1.405   5.621   3.956
 2493SOL     OW 7564   1.886   5.173   3.299
 2493SOL    HW1 7565   1.842   5.258   3.309
 2493SOL    HW2 7566   1.907   5.146   3.388
 2494SOL     OW 7567   2.079   6.098   3.331
 2494SOL    HW1 7568   2.060   6.006   3.315
 2494SOL    HW2 7569   2.173   6.106   3.320
 2495SOL     OW 7570   0.129   5.463   4.038
 2495SOL    HW1 7571   0.190   5.518   3.990
 2495SOL    HW2 7572   0.097   5.399   3.974
 2496SOL     OW 7573   1.403   5.542   3.790
 2496SOL    HW1 7574   1.485   5.541   3.740
 2496SOL    HW2 7575   1.334   5.531   3.724
 2497SOL     OW 7576   1.107   6.622   2.684
 2497SOL    HW1 7577   1.135   6.546   2.634
 2497SOL    HW2 7578   1.047   6.587   2.750
 2498SOL     OW 7579   0.205   6.215   4.603
 2498SOL    HW1 7580   0.259   6.282   4.645
 2498SOL    HW2 7581   0.245   6.204   4.516
 2499SOL     OW 7582   0.731   5.121   3.819
 2499SOL    HW1 7583   0.717   5.209   3.854
 2499SOL    HW2 7584   0.660   5.108   3.756
 2500SOL     OW 7585   1.413   5.365   2.850
 2500SOL    HW1 7586   1.437   5.445   2.895
 2500SOL    HW2 7587   1.478   5.356   2.780
 2501SOL     OW 7588   1.374   6.148   4.043
 2501SOL    HW1 7589   1.445   6.087   4.063
 2501SOL    HW2 7590   1.417   6.222   4.001
 2502SOL     OW 7591   1.036   6.635   4.754
 2502SOL    HW1 7592   1.006   6.557   4.706
 2502SOL    HW2 7593   1.129   6.641   4.735
 2503SOL     OW 7594   1.655   5.534   3.686
 2503SOL    HW1 7595   1.735   5.559   3.732
 2503SOL    HW2 7596   1.627   5.612   3.640
 2504SOL     OW 7597   1.613   5.836   2.630
 2504SOL    HW1 7598   1.586   5.877   2.548
 2504SOL    HW2 7599   1.587   5.898   2.698
 2505SOL     OW 7600   2.261   6.617   4.152
 2505SOL    HW1 7601   2.201   6.649   4.084
 2505SOL    HW2 7602   2.222   6.647   4.234
 2506SOL     OW 7603   0.018   6.806   3.612
 2506SOL    HW1 7604  -0.017   6.836   3.528
 2506SOL    HW2 7605   0.087   6.745   3.589
 2507SOL     OW 7606   0.730   5.204   2.535
 2507SOL    HW1 7607   0.652   5.258   2.520
 2507SOL    HW2 7608   0.761   5.182   2.447
 2508SOL     OW 7609   1.093   5.316   3.776
 2508SOL    HW1 7610   1.076   5.232   3.733
 2508SOL    HW2 7611   1.137   5.369   3.710
 2509SOL     OW 7612   2.189   6.242   3.951
 2509SOL    HW1 7613   2.238   6.241   3.868
 2509SOL    HW2 7614   2.236   6.181   4.007
 2510SOL     OW 7615   0.413   5.799   4.434
 2510SOL    HW1 7616   0.427   5.705   4.437
 2510SOL    HW2 7617   0.380   5.815   4.345
 2511SOL     OW 7618   0.260   6.278   3.426
 2511SOL    HW1 7619   0.351   6.249   3.421
 2511SOL    HW2 7620   0.242   6.316   3.339
 2512SOL     OW 7621   1.032   5.283   3.132
 2512SOL    HW1 7622   1.095   5.299   3.062
 2512SOL    HW2 7623   0.948   5.311   3.097
 2513SOL     OW 7624   0.289   5.369   4.847
 2513SOL    HW1 7625   0.212   5.396   4.799
 2513SOL    HW2 7626   0.300   5.276   4.826
 2514SOL     OW 7627   1.444   5.582   3.303
 2514SOL    HW1 7628   1.349   5.590   3.316
 2514SOL    HW2 7629   1.482   5.614   3.385
 2515SOL     OW 7630   1.741   5.145   4.730
 2515SOL    HW1 7631   1.738   5.101   4.815
 2515SOL    HW2 7632   1.683   5.092   4.674
 2516SOL     OW 7633   0.668   5.199   3.270
 2516SOL    HW1 7634   0.640   5.107   3.274
 2516SOL    HW2 7635   0.731   5.208   3.342
 2517SOL     OW 7636   2.075   5.023   3.136
 2517SOL    HW1 7637   1.999   5.079   3.154
 2517SOL    HW2 7638   2.132   5.036   3.212
 2518SOL     OW 7639   0.646   6.319   2.535
 2518SOL    HW1 7640   0.621   6.388   2.597
 2518SOL    HW2 7641   0.633   6.359   2.449
 2519SOL     OW 7642   2.314   5.357   4.081
 2519SOL    HW1 7643   2.375   5.284   4.081
 2519SOL    HW2 7644   2.230   5.317   4.059
 2520SOL     OW 7645   0.098   6.103   4.296
 2520SOL    HW1 7646   0.025   6.065   4.344
 2520SOL    HW2 7647   0.112   6.042   4.223
 2521SOL     OW 7648   1.589   5.560   2.613
 2521SOL    HW1 7649   1.593   5.656   2.612
 2521SOL    HW2 7650   1.670   5.533   2.656
 2522SOL     OW 7651   1.537   5.190   4.175
 2522SOL    HW1 7652   1.543   5.278   4.140
 2522SOL    HW2 7653   1.480   5.198   4.252
 2523SOL     OW 7654   2.154   5.597   3.631
 2523SOL    HW1 7655   2.112   5.681   3.618
 2523SOL    HW2 7656   2.213   5.587   3.556
 2524SOL     OW 7657   0.852   6.091   3.044
 2524SOL    HW1 7658   0.895   6.013   3.010
 2524SOL    HW2 7659   0.918   6.132   3.101
 2525SOL     OW 7660   2.065   6.255   4.885
 2525SOL    HW1 7661   2.074   6.176   4.938
 2525SOL    HW2 7662   2.144   6.305   4.903
 2526SOL     OW 7663   0.692   6.235   4.061
 2526SOL    HW1 7664   0.649   6.321   4.068
 2526SOL    HW2 7665   0.785   6.256   4.051
 2527SOL     OW 7666   1.146   6.424   3.245
 2527SOL    HW1 7667   1.065   6.435   3.296
 2527SOL    HW2 7668   1.215   6.455   3.304
 2528SOL     OW 7669   1.242   5.472   3.588
 2528SOL    HW1 7670   1.245   5.386   3.545
 2528SOL    HW2 7671   1.241   5.535   3.515
 2529SOL     OW 7672   1.847   5.801   2.728
 2529SOL    HW1 7673   1.864   5.707   2.727
 2529SOL    HW2 7674   1.771   5.812   2.670
 2530SOL     OW 7675   0.551   5.013   4.821
 2530SOL    HW1 7676   0.541   4.933   4.769
 2530SOL    HW2 7677   0.629   5.055   4.785
 2531SOL     OW 7678   0.519   6.322   4.355
 2531SOL    HW1 7679   0.442   6.364   4.317
 2531SOL    HW2 7680   0.488   6.234   4.379
 2532SOL     OW 7681   0.034   5.742   4.051
 2532SOL    HW1 7682  -0.049   5.704   4.022
 2532SOL    HW2 7683   0.064   5.794   3.976
 2533SOL     OW 7684   1.711   6.254   3.563
 2533SOL    HW1 7685   1.728   6.182   3.624
 2533SOL    HW2 7686   1.798   6.280   3.533
 2534SOL     OW 7687   2.388   6.390   2.707
 2534SOL    HW1 7688   2.439   6.310   2.700
 2534SOL    HW2 7689   2.343   6.398   2.623
 2535SOL     OW 7690   1.154   5.036   3.162
 2535SOL    HW1 7691   1.110   5.121   3.160
 2535SOL    HW2 7692   1.242   5.054   3.127
 2536SOL     OW 7693   1.878   6.169   2.739
 2536SOL    HW1 7694   1.914   6.127   2.660
 2536SOL    HW2 7695   1.808   6.110   2.767
 2537SOL     OW 7696   1.592   5.729   4.535
 2537SOL    HW1 7697   1.626   5.640   4.521
 2537SOL    HW2 7698   1.554   5.726   4.623
 2538SOL     OW 7699   0.893   6.638   4.360
 2538SOL    HW1 7700   0.805   6.602   4.375
 2538SOL    HW2 7701   0.949   6.589   4.420
 2539SOL     OW 7702   0.731   5.722   4.683
 2539SOL    HW1 7703   0.746   5.697   4.775
 2539SOL    HW2 7704   0.659   5.665   4.655
 2540SOL     OW 7705   0.984   6.236   3.575
 2540SOL    HW1 7706   1.036   6.223   3.496
 2540SOL    HW2 7707   0.908   6.285   3.545
 2541SOL     OW 7708   1.588   5.418   4.039
 2541SOL    HW1 7709   1.556   5.454   3.956
 2541SOL    HW2 7710   1.605   5.495   4.093
 2542SOL     OW 7711   0.096   5.783   3.757
 2542SOL    HW1 7712   0.102   5.816   3.668
 2542SOL    HW2 7713   0.005   5.755   3.766
 2543SOL     OW 7714   1.828   5.519   2.736
 2543SOL    HW1 7715   1.907   5.496   2.687
 2543SOL    HW2 7716   1.850   5.500   2.827
 2544SOL     OW 7717   1.686   5.939   3.111
 2544SOL    HW1 7718   1.744   6.014   3.125
 2544SOL    HW2 7719   1.720   5.871   3.168
 2545SOL     OW 7720   1.286   6.266   3.768
 2545SOL    HW1 7721   1.283   6.341   3.828
 2545SOL    HW2 7722   1.199   6.265   3.727
 2546SOL     OW 7723   0.449   6.007   3.506
 2546SOL    HW1 7724   0.515   5.972   3.566
 2546SOL    HW2 7725   0.395   6.065   3.561
 2547SOL     OW 7726   0.361   6.388   4.717
 2547SOL    HW1 7727   0.453   6.383   4.694
 2547SOL    HW2 7728   0.327   6.461   4.664
 2548SOL     OW 7729   1.855   6.140   3.133
 2548SOL    HW1 7730   1.916   6.143   3.207
 2548SOL    HW2 7731   1.810   6.224   3.136
 2549SOL     OW 7732   0.642   6.019   3.913
 2549SOL    HW1 7733   0.718   6.074   3.897
 2549SOL    HW2 7734   0.593   6.065   3.981
 2550SOL     OW 7735   1.732   6.096   3.813
 2550SOL    HW1 7736   1.639   6.088   3.790
 2550SOL    HW2 7737   1.732   6.110   3.908
 2551SOL     OW 7738   1.223   5.093   4.251
 2551SOL    HW1 7739   1.137   5.102   4.209
 2551SOL    HW2 7740   1.220   5.007   4.292
 2552SOL     OW 7741   2.274   6.018   2.967
 2552SOL    HW1 7742   2.186   5.981   2.970
 2552SOL    HW2 7743   2.298   6.017   2.874
 2553SOL     OW 7744   2.448   5.208   2.820
 2553SOL    HW1 7745   2.509   5.254   2.878
 2553SOL    HW2 7746   2.487   5.121   2.808
 2554SOL     OW 7747   1.347   6.309   2.762
 2554SOL    HW1 7748   1.291   6.362   2.705
 2554SOL    HW2 7749   1.319   6.332   2.850
 2555SOL     OW 7750   0.367   6.283   3.896
 2555SOL    HW1 7751   0.418   6.323   3.967
 2555SOL    HW2 7752   0.282   6.327   3.901
 2556SOL     OW 7753   0.922   6.523   2.850
 2556SOL    HW1 7754   0.850   6.468   2.880
 2556SOL    HW2 7755   0.958   6.561   2.931
 2557SOL     OW 7756   1.665   5.378   3.237
 2557SOL    HW1 7757   1.632   5.298   3.195
 2557SOL    HW2 7758   1.589   5.436   3.240
 2558SOL     OW 7759   0.745   5.895   2.785
 2558SOL    HW1 7760   0.657   5.926   2.803
 2558SOL    HW2 7761   0.777   5.952   2.715
 2559SOL     OW 7762   0.247   5.012   3.295
 2559SOL    HW1 7763   0.185   5.026   3.367
 2559SOL    HW2 7764   0.195   4.969   3.227
 2560SOL     OW 7765   1.234   5.374   4.275
 2560SOL    HW1 7766   1.200   5.392   4.187
 2560SOL    HW2 7767   1.259   5.282   4.273
 2561SOL     OW 7768   0.500   6.209   3.321
 2561SOL    HW1 7769   0.512   6.151   3.247
 2561SOL    HW2 7770   0.562   6.177   3.387
 2562SOL     OW 7771   0.588   5.049   4.289
 2562SOL    HW1 7772   0.626   5.017   4.207
 2562SOL    HW2 7773   0.494   5.046   4.274
 2563SOL     OW 7774   0.129   5.589   4.510
 2563SOL    HW1 7775   0.122   5.561   4.418
 2563SOL    HW2 7776   0.217   5.627   4.517
 2564SOL     OW 7777   1.807   6.125   4.095
 2564SOL    HW1 7778   1.898   6.154   4.110
 2564SOL    HW2 7779   1.804   6.038   4.134
 2565SOL     OW 7780   1.547   5.954   2.868
 2565SOL    HW1 7781   1.567   6.047   2.858
 2565SOL    HW2 7782   1.600   5.926   2.942
 2566SOL     OW 7783   0.275   5.069   3.624
 2566SOL    HW1 7784   0.296   5.141   3.564
 2566SOL    HW2 7785   0.198   5.027   3.584
 2567SOL     OW 7786   0.254   5.521   3.091
 2567SOL    HW1 7787   0.318   5.503   3.160
 2567SOL    HW2 7788   0.291   5.596   3.043
 2568SOL     OW 7789   0.402   5.821   2.683
 2568SOL    HW1 7790   0.454   5.778   2.615
 2568SOL    HW2 7791   0.329   5.860   2.635
 2569SOL     OW 7792   1.273   5.983   4.227
 2569SOL    HW1 7793   1.359   5.954   4.258
 2569SOL    HW2 7794   1.293   6.045   4.157
 2570SOL     OW 7795   2.006   5.235   2.794
 2570SOL    HW1 7796   2.043   5.253   2.708
 2570SOL    HW2 7797   1.986   5.321   2.831
 2571SOL     OW 7798   0.412   6.436   3.660
 2571SOL    HW1 7799   0.359   6.366   3.699
 2571SOL    HW2 7800   0.493   6.436   3.711
 2572SOL     OW 7801   1.882   5.129   4.501
 2572SOL    HW1 7802   1.842   5.133   4.588
 2572SOL    HW2 7803   1.829   5.066   4.453
 2573SOL     OW 7804   0.740   6.341   3.518
 2573SOL    HW1 7805   0.676   6.332   3.589
 2573SOL    HW2 7806   0.725   6.264   3.463
 2574SOL     OW 7807   2.444   6.235   3.041
 2574SOL    HW1 7808   2.401   6.152   3.019
 2574SOL    HW2 7809   2.373   6.294   3.066
 2575SOL     OW 7810   0.324   6.282   2.574
 2575SOL    HW1 7811   0.385   6.257   2.644
 2575SOL    HW2 7812   0.335   6.377   2.566
 2576SOL     OW 7813   2.049   5.435   4.209
 2576SOL    HW1 7814   1.988   5.364   4.228
 2576SOL    HW2 7815   2.024   5.466   4.121
 2577SOL     OW 7816   0.408   5.301   2.839
 2577SOL    HW1 7817   0.414   5.211   2.809
 2577SOL    HW2 7818   0.484   5.311   2.897
 2578SOL     OW 7819   1.361   5.160   3.602
 2578SOL    HW1 7820   1.451   5.180   3.627
 2578SOL    HW2 7821   1.354   5.193   3.512
 2579SOL     OW 7822   0.556   5.052   3.579
 2579SOL    HW1 7823   0.486   5.017   3.635
 2579SOL    HW2 7824   0.539   5.013   3.493
 2580SOL     OW 7825   2.473   6.367   4.426
 2580SOL    HW1 7826   2.548   6.329   4.472
 2580SOL    HW2 7827   2.472   6.323   4.341
 2581SOL     OW 7828   0.861   6.260   4.343
 2581SOL    HW1 7829   0.802   6.329   4.313
 2581SOL    HW2 7830   0.949   6.295   4.325
 2582SOL     OW 7831   0.523   5.310   4.575
 2582SOL    HW1 7832   0.469   5.231   4.573
 2582SOL    HW2 7833   0.591   5.291   4.640
 2583SOL     OW 7834   0.896   5.839   2.999
 2583SOL    HW1 7835   0.863   5.853   2.910
 2583SOL    HW2 7836   0.962   5.771   2.989
 2584SOL     OW 7837   0.650   5.798   3.789
 2584SOL    HW1 7838   0.561   5.778   3.759
 2584SOL    HW2 7839   0.640   5.878   3.840
 2585SOL     OW 7840   0.387   6.671   2.951
 2585SOL    HW1 7841   0.477   6.703   2.946
 2585SOL    HW2 7842   0.387   6.610   3.025
 2586SOL     OW 7843   0.877   6.134   3.795
 2586SOL    HW1 7844   0.954   6.122   3.849
 2586SOL    HW2 7845   0.908   6.183   3.719
 2587SOL     OW 7846   0.911   5.180   4.200
 2587SOL    HW1 7847   0.858   5.227   4.264
 2587SOL    HW2 7848   0.898   5.229   4.119
 2588SOL     OW 7849   2.380   6.360   4.164
 2588SOL    HW1 7850   2.321   6.435   4.151
 2588SOL    HW2 7851   2.322   6.284   4.165
 2589SOL     OW 7852   0.938   6.502   3.423
 2589SOL    HW1 7853   0.853   6.485   3.463
 2589SOL    HW2 7854   0.993   6.533   3.495
 2590SOL     OW 7855   1.978   6.326   3.466
 2590SOL    HW1 7856   1.998   6.328   3.560
 2590SOL    HW2 7857   2.013   6.243   3.436
 2591SOL     OW 7858   0.994   5.852   4.694
 2591SOL    HW1 7859   0.898   5.857   4.689
 2591SOL    HW2 7860   1.013   5.860   4.788
 2592SOL     OW 7861   0.175   5.260   3.062
 2592SOL    HW1 7862   0.231   5.337   3.070
 2592SOL    HW2 7863   0.236   5.187   3.055
 2593SOL     OW 7864   1.594   6.301   4.159
 2593SOL    HW1 7865   1.541   6.256   4.224
 2593SOL    HW2 7866   1.671   6.246   4.148
 2594SOL     OW 7867   0.651   6.194   4.701
 2594SOL    HW1 7868   0.613   6.140   4.771
 2594SOL    HW2 7869   0.646   6.139   4.623
 2595SOL     OW 7870   0.237   5.836   3.014
 2595SOL    HW1 7871   0.265   5.853   3.104
 2595SOL    HW2 7872   0.304   5.778   2.979
 2596SOL     OW 7873   1.475   6.405   3.581
 2596SOL    HW1 7874   1.415   6.343   3.623
 2596SOL    HW2 7875   1.548   6.350   3.550
 2597SOL     OW 7876   0.041   6.140   4.788
 2597SOL    HW1 7877   0.105   6.143   4.717
 2597SOL    HW2 7878  -0.025   6.078   4.758
 2598SOL     OW 7879   0.253   6.505   4.487
 2598SOL    HW1 7880   0.257   6.463   4.401
 2598SOL    HW2 7881   0.202   6.584   4.473
 2599SOL     OW 7882   1.843   5.729   4.779
 2599SOL    HW1 7883   1.910   5.700   4.716
 2599SOL    HW2 7884   1.787   5.652   4.791
 2600SOL     OW 7885   1.334   6.442   3.956
 2600SOL    HW1 7886   1.267   6.510   3.968
 2600SOL    HW2 7887   1.369   6.429   4.044
 2601SOL     OW 7888   1.509   6.344   4.624
 2601SOL    HW1 7889   1.557   6.421   4.653
 2601SOL    HW2 7890   1.495   6.293   4.704
 2602SOL     OW 7891   1.262   5.370   3.993
 2602SOL    HW1 7892   1.186   5.313   3.975
 2602SOL    HW2 7893   1.260   5.434   3.922
 2603SOL     OW 7894   0.071   6.086   3.319
 2603SOL    HW1 7895   0.141   6.113   3.377
 2603SOL    HW2 7896   0.098   6.117   3.232
 2604SOL     OW 7897   0.623   6.253   3.753
 2604SOL    HW1 7898   0.696   6.216   3.803
 2604SOL    HW2 7899   0.548   6.197   3.774
 2605SOL     OW 7900   1.577   5.908   4.868
 2605SOL    HW1 7901   1.631   5.900   4.789
 2605SOL    HW2 7902   1.507   5.843   4.856
 2606SOL     OW 7903   1.044   5.600   4.321
 2606SOL    HW1 7904   1.051   5.657   4.245
 2606SOL    HW2 7905   1.078   5.516   4.290
 2607SOL     OW 7906   0.440   5.537   3.621
 2607SOL    HW1 7907   0.507   5.562   3.557
 2607SOL    HW2 7908   0.358   5.567   3.582
 2608SOL     OW 7909   0.715   6.312   2.915
 2608SOL    HW1 7910   0.759   6.237   2.954
 2608SOL    HW2 7911   0.684   6.363   2.990
 2609SOL     OW 7912   1.099   6.514   4.507
 2609SOL    HW1 7913   1.169   6.577   4.496
 2609SOL    HW2 7914   1.129   6.455   4.577
 2610SOL     OW 7915   1.316   5.921   2.515
 2610SOL    HW1 7916   1.253   5.861   2.475
 2610SOL    HW2 7917   1.268   5.962   2.587
 2611SOL     OW 7918   1.144   5.678   3.078
 2611SOL    HW1 7919   1.200   5.752   3.055
 2611SOL    HW2 7920   1.169   5.609   3.016
 2612SOL     OW 7921   1.192   5.667   2.729
 2612SOL    HW1 7922   1.098   5.660   2.746
 2612SOL    HW2 7923   1.222   5.737   2.787
 2613SOL     OW 7924   1.849   5.671   3.819
 2613SOL    HW1 7925   1.910   5.728   3.772
 2613SOL    HW2 7926   1.903   5.598   3.849
 2614SOL     OW 7927   1.148   5.989   3.604
 2614SOL    HW1 7928   1.108   6.067   3.642
 2614SOL    HW2 7929   1.119   5.917   3.660
 2615SOL     OW 7930   1.046   5.243   4.776
 2615SOL    HW1 7931   1.086   5.310   4.720
 2615SOL    HW2 7932   1.115   5.217   4.836
 2616SOL     OW 7933   2.211   6.494   4.475
 2616SOL    HW1 7934   2.288   6.474   4.422
 2616SOL    HW2 7935   2.160   6.412   4.475
 2617SOL     OW 7936   0.161   5.672   2.720
 2617SOL    HW1 7937   0.081   5.694   2.672
 2617SOL    HW2 7938   0.215   5.751   2.713
 2618SOL     OW 7939   0.099   6.286   3.644
 2618SOL    HW1 7940   0.140   6.302   3.558
 2618SOL    HW2 7941   0.134   6.201   3.671
 2619SOL     OW 7942   2.357   5.365   3.693
 2619SOL    HW1 7943   2.286   5.359   3.630
 2619SOL    HW2 7944   2.364   5.277   3.730
 2620SOL     OW 7945   1.135   6.342   4.280
 2620SOL    HW1 7946   1.214   6.296   4.307
 2620SOL    HW2 7947   1.133   6.420   4.335
 2621SOL     OW 7948   1.408   5.951   3.502
 2621SOL    HW1 7949   1.407   6.033   3.453
 2621SOL    HW2 7950   1.317   5.940   3.531
 2622SOL     OW 7951   0.288   5.661   3.888
 2622SOL    HW1 7952   0.231   5.709   3.829
 2622SOL    HW2 7953   0.328   5.593   3.833
 2623SOL     OW 7954   1.380   5.214   3.113
 2623SOL    HW1 7955   1.401   5.271   3.038
 2623SOL    HW2 7956   1.436   5.138   3.102
 2624SOL     OW 7957   0.399   5.518   2.649
 2624SOL    HW1 7958   0.389   5.452   2.718
 2624SOL    HW2 7959   0.322   5.574   2.660
 2625SOL     OW 7960   1.081   6.285   4.747
 2625SOL    HW1 7961   0.994   6.324   4.737
 2625SOL    HW2 7962   1.082   6.211   4.687
 2626SOL     OW 7963   1.290   5.862   2.911
 2626SOL    HW1 7964   1.381   5.884   2.894
 2626SOL    HW2 7965   1.240   5.936   2.876
 2627SOL     OW 7966   0.927   5.341   2.700
 2627SOL    HW1 7967   0.969   5.406   2.644
 2627SOL    HW2 7968   0.874   5.288   2.640
 2628SOL     OW 7969   2.256   6.580   3.649
 2628SOL    HW1 7970   2.162   6.593   3.641
 2628SOL    HW2 7971   2.293   6.625   3.573
 2629SOL     OW 7972   1.071   5.770   3.809
 2629SOL    HW1 7973   1.022   5.790   3.889
 2629SOL    HW2 7974   1.163   5.782   3.834
 2630SOL     OW 7975   0.306   5.288   3.482
 2630SOL    HW1 7976   0.246   5.359   3.505
 2630SOL    HW2 7977   0.354   5.321   3.406
 2631SOL     OW 7978   0.277   5.378   3.793
 2631SOL    HW1 7979   0.297   5.389   3.700
 2631SOL    HW2 7980   0.362   5.367   3.835
 2632SOL     OW 7981   1.419   5.695   4.755
 2632SOL    HW1 7982   1.347   5.693   4.692
 2632SOL    HW2 7983   1.382   5.657   4.835
 2633SOL     OW 7984   0.781   6.071   2.575
 2633SOL    HW1 7985   0.744   6.160   2.579
 2633SOL    HW2 7986   0.710   6.017   2.542
 2634SOL     OW 7987   2.321   5.329   3.039
 2634SOL    HW1 7988   2.319   5.281   2.957
 2634SOL    HW2 7989   2.364   5.269   3.100
 2635SOL     OW 7990   0.184   5.945   2.598
 2635SOL    HW1 7991   0.166   6.028   2.640
 2635SOL    HW2 7992   0.124   5.941   2.524
 2636SOL     OW 7993   1.198   6.057   2.728
 2636SOL    HW1 7994   1.277   6.112   2.735
 2636SOL    HW2 7995   1.137   6.109   2.676
 2637SOL     OW 7996   1.654   6.505   2.718
 2637SOL    HW1 7997   1.663   6.443   2.646
 2637SOL    HW2 7998   1.580   6.561   2.693
 2638SOL     OW 7999   0.046   4.985   3.489
 2638SOL    HW1 8000   0.052   4.891   3.468
 2638SOL    HW2 8001  -0.046   5.006   3.474
 2639SOL     OW 8002   1.303   5.519   2.515
 2639SOL    HW1 8003   1.267   5.581   2.578
 2639SOL    HW2 8004   1.384   5.488   2.554
 2640SOL     OW 8005   2.154   5.202   4.581
 2640SOL    HW1 8006   2.078   5.166   4.535
 2640SOL    HW2 8007   2.201   5.126   4.615
 2641SOL     OW 8008   2.097   5.158   3.962
 2641SOL    HW1 8009   2.062   5.081   3.916
 2641SOL    HW2 8010   2.188   5.164   3.933
 2642SOL     OW 8011   2.158   5.325   3.514
 2642SOL    HW1 8012   2.080   5.290   3.557
 2642SOL    HW2 8013   2.130   5.411   3.481
 2643SOL     OW 8014   0.896   5.347   3.975
 2643SOL    HW1 8015   0.856   5.430   3.952
 2643SOL    HW2 8016   0.961   5.331   3.906
 2644SOL     OW 8017   2.070   6.338   2.845
 2644SOL    HW1 8018   2.010   6.268   2.822
 2644SOL    HW2 8019   2.128   6.300   2.910
 2645SOL     OW 8020   0.935   5.857   3.437
 2645SOL    HW1 8021   0.931   5.770   3.478
 2645SOL    HW2 8022   0.980   5.842   3.354
 2646SOL     OW 8023   2.343   5.993   4.631
 2646SOL    HW1 8024   2.351   5.951   4.545
 2646SOL    HW2 8025   2.253   6.024   4.635
 2647SOL     OW 8026   0.730   6.075   3.517
 2647SOL    HW1 8027   0.786   6.011   3.472
 2647SOL    HW2 8028   0.764   6.078   3.606
 2648SOL     OW 8029   1.153   5.635   4.563
 2648SOL    HW1 8030   1.110   5.711   4.601
 2648SOL    HW2 8031   1.101   5.614   4.486
 2649SOL     OW 8032   0.667   5.543   2.723
 2649SOL    HW1 8033   0.671   5.569   2.815
 2649SOL    HW2 8034   0.583   5.498   2.714
 2650SOL     OW 8035   1.658   5.642   4.230
 2650SOL    HW1 8036   1.565   5.652   4.253
 2650SOL    HW2 8037   1.697   5.600   4.306
 2651SOL     OW 8038   1.045   6.082   3.343
 2651SOL    HW1 8039   1.140   6.092   3.338
 2651SOL    HW2 8040   1.032   6.008   3.401
 2652SOL     OW 8041   2.043   5.853   2.917
 2652SOL    HW1 8042   1.958   5.834   2.877
 2652SOL    HW2 8043   2.095   5.774   2.900
 2653SOL     OW 8044   1.808   5.262   3.941
 2653SOL    HW1 8045   1.866   5.234   4.012
 2653SOL    HW2 8046   1.723   5.275   3.983
 2654SOL     OW 8047   1.826   5.811   4.071
 2654SOL    HW1 8048   1.805   5.805   3.978
 2654SOL    HW2 8049   1.759   5.758   4.114
 2655SOL     OW 8050   0.426   5.719   4.866
 2655SOL    HW1 8051   0.357   5.750   4.807
 2655SOL    HW2 8052   0.403   5.628   4.884
 2656SOL     OW 8053   1.008   5.383   3.364
 2656SOL    HW1 8054   0.947   5.339   3.423
 2656SOL    HW2 8055   0.989   5.346   3.278
 2657SOL     OW 8056   0.222   6.037   3.731
 2657SOL    HW1 8057   0.192   5.947   3.747
 2657SOL    HW2 8058   0.225   6.077   3.818
 2658SOL     OW 8059   2.237   5.564   3.368
 2658SOL    HW1 8060   2.330   5.563   3.345
 2658SOL    HW2 8061   2.209   5.654   3.349
 2659SOL     OW 8062   2.392   5.326   4.930
 2659SOL    HW1 8063   2.418   5.235   4.946
 2659SOL    HW2 8064   2.436   5.350   4.848
 2660SOL     OW 8065   0.914   5.670   2.771
 2660SOL    HW1 8066   0.851   5.743   2.774
 2660SOL    HW2 8067   0.878   5.610   2.706
 2661SOL     OW 8068   2.224   6.091   4.207
 2661SOL    HW1 8069   2.282   6.019   4.232
 2661SOL    HW2 8070   2.136   6.053   4.212
 2662SOL     OW 8071   2.048   5.634   4.624
 2662SOL    HW1 8072   2.048   5.571   4.696
 2662SOL    HW2 8073   2.116   5.603   4.564
 2663SOL     OW 8074   0.691   5.678   4.233
 2663SOL    HW1 8075   0.748   5.633   4.296
 2663SOL    HW2 8076   0.700   5.771   4.255
 2664SOL     OW 8077   2.291   5.837   3.319
 2664SOL    HW1 8078   2.345   5.816   3.243
 2664SOL    HW2 8079   2.201   5.827   3.289
 2665SOL     OW 8080   1.732   4.982   4.271
 2665SOL    HW1 8081   1.697   4.940   4.349
 2665SOL    HW2 8082   1.660   5.034   4.237
 2666SOL     OW 8083   2.361   5.123   3.865
 2666SOL    HW1 8084   2.455   5.135   3.874
 2666SOL    HW2 8085   2.351   5.046   3.810
 2667SOL     OW 8086   2.247   4.987   4.705
 2667SOL    HW1 8087   2.320   5.030   4.749
 2667SOL    HW2 8088   2.216   4.921   4.767
 2668SOL     OW 8089   2.132   5.374   4.818
 2668SOL    HW1 8090   2.214   5.346   4.858
 2668SOL    HW2 8091   2.131   5.330   4.733
 2669SOL     OW 8092   1.465   5.582   3.013
 2669SOL    HW1 8093   1.548   5.629   3.009
 2669SOL    HW2 8094   1.440   5.587   3.105
 2670SOL     OW 8095   2.318   6.001   2.667
 2670SOL    HW1 8096   2.391   6.054   2.633
 2670SOL    HW2 8097   2.344   5.911   2.650
 2671SOL     OW 8098   2.108   5.424   3.165
 2671SOL    HW1 8099   2.178   5.390   3.111
 2671SOL    HW2 8100   2.152   5.466   3.239
 2672SOL     OW 8101   1.095   6.092   4.540
 2672SOL    HW1 8102   1.083   6.099   4.445
 2672SOL    HW2 8103   1.049   6.011   4.564
 2673SOL     OW 8104   3.823   1.583   0.888
 2673SOL    HW1 8105   3.886   1.553   0.953
 2673SOL    HW2 8106   3.774   1.652   0.933
 2674SOL     OW 8107   4.497   1.314   1.665
 2674SOL    HW1 8108   4.553   1.287   1.592
 2674SOL    HW2 8109   4.545   1.288   1.743
 2675SOL     OW 8110   4.715   0.646   1.662
 2675SOL    HW1 8111   4.645   0.589   1.695
 2675SOL    HW2 8112   4.768   0.588   1.607
 2676SOL     OW 8113   3.132   2.336   0.377
 2676SOL    HW1 8114   3.140   2.427   0.348
 2676SOL    HW2 8115   3.196   2.289   0.324
 2677SOL     OW 8116   4.438   1.302   1.280
 2677SOL    HW1 8117   4.377   1.232   1.301
 2677SOL    HW2 8118   4.508   1.294   1.345
 2678SOL     OW 8119   4.358   1.514   1.527
 2678SOL    HW1 8120   4.407   1.441   1.563
 2678SOL    HW2 8121   4.301   1.543   1.599
 2679SOL     OW 8122   3.920   0.206   2.188
 2679SOL    HW1 8123   3.843   0.254   2.219
 2679SOL    HW2 8124   3.993   0.243   2.238
 2680SOL     OW 8125   2.836   2.234   1.980
 2680SOL    HW1 8126   2.849   2.173   2.053
 2680SOL    HW2 8127   2.779   2.187   1.920
 2681SOL     OW 8128   2.808   2.468   1.836
 2681SOL    HW1 8129   2.714   2.479   1.823
 2681SOL    HW2 8130   2.816   2.384   1.883
 2682SOL     OW 8131   4.286   1.729   1.853
 2682SOL    HW1 8132   4.232   1.701   1.780
 2682SOL    HW2 8133   4.243   1.808   1.886
 2683SOL     OW 8134   3.884   1.675   1.188
 2683SOL    HW1 8135   3.931   1.687   1.271
 2683SOL    HW2 8136   3.898   1.583   1.166
 2684SOL     OW 8137   4.247   2.124   0.610
 2684SOL    HW1 8138   4.290   2.209   0.612
 2684SOL    HW2 8139   4.318   2.061   0.623
 2685SOL     OW 8140   2.874   0.934   0.777
 2685SOL    HW1 8141   2.942   0.985   0.734
 2685SOL    HW2 8142   2.865   0.976   0.863
 2686SOL     OW 8143   4.200   0.723   0.485
 2686SOL    HW1 8144   4.196   0.811   0.522
 2686SOL    HW2 8145   4.214   0.737   0.392
 2687SOL     OW 8146   4.102   0.275   1.119
 2687SOL    HW1 8147   4.119   0.365   1.149
 2687SOL    HW2 8148   4.188   0.244   1.090
 2688SOL     OW 8149   4.376   0.021   1.059
 2688SOL    HW1 8150   4.303  -0.026   1.099
 2688SOL    HW2 8151   4.441  -0.046   1.041
 2689SOL     OW 8152   4.103   0.022   1.323
 2689SOL    HW1 8153   4.146   0.107   1.333
 2689SOL    HW2 8154   4.030   0.025   1.386
 2690SOL     OW 8155   3.098   1.975   0.152
 2690SOL    HW1 8156   3.006   1.994   0.171
 2690SOL    HW2 8157   3.097   1.884   0.123
 2691SOL     OW 8158   4.817   1.260   0.892
 2691SOL    HW1 8159   4.883   1.197   0.863
 2691SOL    HW2 8160   4.868   1.334   0.924
 2692SOL     OW 8161   4.291   1.252   2.275
 2692SOL    HW1 8162   4.321   1.162   2.288
 2692SOL    HW2 8163   4.363   1.306   2.307
 2693SOL     OW 8164   4.714   0.648   0.400
 2693SOL    HW1 8165   4.727   0.580   0.466
 2693SOL    HW2 8166   4.791   0.641   0.344
 2694SOL     OW 8167   3.190   1.503   0.672
 2694SOL    HW1 8168   3.160   1.540   0.755
 2694SOL    HW2 8169   3.285   1.498   0.681
 2695SOL     OW 8170   3.392   2.380   2.486
 2695SOL    HW1 8171   3.346   2.343   2.411
 2695SOL    HW2 8172   3.384   2.314   2.554
 2696SOL     OW 8173   4.714   1.768   2.162
 2696SOL    HW1 8174   4.761   1.845   2.132
 2696SOL    HW2 8175   4.772   1.695   2.140
 2697SOL     OW 8176   4.469   1.963   0.665
 2697SOL    HW1 8177   4.565   1.965   0.662
 2697SOL    HW2 8178   4.445   1.883   0.619
 2698SOL     OW 8179   2.966   1.755   1.409
 2698SOL    HW1 8180   2.888   1.729   1.360
 2698SOL    HW2 8181   2.932   1.801   1.486
 2699SOL     OW 8182   3.051   0.727   0.778
 2699SOL    HW1 8183   3.104   0.744   0.856
 2699SOL    HW2 8184   2.992   0.802   0.773
 2700SOL     OW 8185   3.417   2.433   1.435
 2700SOL    HW1 8186   3.434   2.371   1.364
 2700SOL    HW2 8187   3.345   2.488   1.403
 2701SOL     OW 8188   2.601   1.833   0.457
 2701SOL    HW1 8189   2.537   1.769   0.426
 2701SOL    HW2 8190   2.685   1.790   0.444
 2702SOL     OW 8191   3.627   2.142   0.741
 2702SOL    HW1 8192   3.597   2.215   0.794
 2702SOL    HW2 8193   3.682   2.090   0.801
 2703SOL     OW 8194   2.621   1.400   0.733
 2703SOL    HW1 8195   2.560   1.440   0.796
 2703SOL    HW2 8196   2.564   1.353   0.672
 2704SOL     OW 8197   3.680   0.410   2.141
 2704SOL    HW1 8198   3.685   0.370   2.055
 2704SOL    HW2 8199   3.689   0.504   2.125
 2705SOL     OW 8200   4.905   0.093   2.428
 2705SOL    HW1 8201   4.847   0.077   2.503
 2705SOL    HW2 8202   4.993   0.075   2.462
 2706SOL     OW 8203   4.512   1.067   2.120
 2706SOL    HW1 8204   4.463   1.056   2.201
 2706SOL    HW2 8205   4.481   0.998   2.063
 2707SOL     OW 8206   4.771   1.420   2.446
 2707SOL    HW1 8207   4.857   1.378   2.441
 2707SOL    HW2 8208   4.787   1.511   2.423
 2708SOL     OW 8209   4.448   0.982   1.791
 2708SOL    HW1 8210   4.411   0.927   1.722
 2708SOL    HW2 8211   4.422   0.939   1.873
 2709SOL     OW 8212   4.756   1.906   0.570
 2709SOL    HW1 8213   4.836   1.940   0.610
 2709SOL    HW2 8214   4.777   1.816   0.545
 2710SOL     OW 8215   4.333   0.308   1.804
 2710SOL    HW1 8216   4.244   0.274   1.801
 2710SOL    HW2 8217   4.370   0.271   1.884
 2711SOL     OW 8218   3.749   2.367   1.878
 2711SOL    HW1 8219   3.687   2.304   1.841
 2711SOL    HW2 8220   3.814   2.314   1.924
 2712SOL     OW 8221   4.260   0.930   1.147
 2712SOL    HW1 8222   4.233   1.010   1.191
 2712SOL    HW2 8223   4.355   0.927   1.160
 2713SOL     OW 8224   4.059   0.761   1.059
 2713SOL    HW1 8225   4.112   0.824   1.109
 2713SOL    HW2 8226   3.995   0.816   1.012
 2714SOL     OW 8227   3.365   1.008   1.880
 2714SOL    HW1 8228   3.306   0.979   1.949
 2714SOL    HW2 8229   3.352   1.103   1.874
 2715SOL     OW 8230   2.835   0.135   2.075
 2715SOL    HW1 8231   2.831   0.078   2.152
 2715SOL    HW2 8232   2.853   0.076   2.002
 2716SOL     OW 8233   3.778   1.519   2.249
 2716SOL    HW1 8234   3.814   1.430   2.240
 2716SOL    HW2 8235   3.830   1.572   2.189
 2717SOL     OW 8236   3.312   0.446   0.499
 2717SOL    HW1 8237   3.350   0.454   0.412
 2717SOL    HW2 8238   3.268   0.529   0.514
 2718SOL     OW 8239   2.923   1.450   0.582
 2718SOL    HW1 8240   3.001   1.464   0.635
 2718SOL    HW2 8241   2.894   1.361   0.604
 2719SOL     OW 8242   4.942   0.186   0.710
 2719SOL    HW1 8243   4.958   0.100   0.671
 2719SOL    HW2 8244   5.024   0.234   0.696
 2720SOL     OW 8245   3.995   2.028   0.802
 2720SOL    HW1 8246   4.023   1.939   0.825
 2720SOL    HW2 8247   4.072   2.068   0.762
 2721SOL     OW 8248   2.753   1.158   0.563
 2721SOL    HW1 8249   2.667   1.186   0.531
 2721SOL    HW2 8250   2.764   1.069   0.529
 2722SOL     OW 8251   3.344   1.911   0.346
 2722SOL    HW1 8252   3.410   1.871   0.290
 2722SOL    HW2 8253   3.394   1.964   0.409
 2723SOL     OW 8254   2.852   2.325   0.286
 2723SOL    HW1 8255   2.934   2.276   0.291
 2723SOL    HW2 8256   2.835   2.332   0.192
 2724SOL     OW 8257   4.638   1.612   0.380
 2724SOL    HW1 8258   4.603   1.524   0.362
 2724SOL    HW2 8259   4.722   1.614   0.335
 2725SOL     OW 8260   4.040   0.989   1.908
 2725SOL    HW1 8261   4.124   1.030   1.924
 2725SOL    HW2 8262   4.042   0.909   1.962
 2726SOL     OW 8263   2.550   0.489   1.792
 2726SOL    HW1 8264   2.566   0.462   1.702
 2726SOL    HW2 8265   2.465   0.451   1.814
 2727SOL     OW 8266   3.935   0.167   1.926
 2727SOL    HW1 8267   3.938   0.174   2.022
 2727SOL    HW2 8268   3.860   0.110   1.909
 2728SOL     OW 8269   3.764   1.443   0.527
 2728SOL    HW1 8270   3.722   1.440   0.613
 2728SOL    HW2 8271   3.826   1.516   0.533
 2729SOL     OW 8272   4.397   0.443   0.494
 2729SOL    HW1 8273   4.329   0.436   0.561
 2729SOL    HW2 8274   4.479   0.439   0.543
 2730SOL     OW 8275   4.328   1.700   2.133
 2730SOL    HW1 8276   4.385   1.632   2.166
 2730SOL    HW2 8277   4.332   1.692   2.038
 2731SOL     OW 8278   2.652   1.775   1.991
 2731SOL    HW1 8279   2.575   1.806   2.038
 2731SOL    HW2 8280   2.689   1.854   1.951
 2732SOL     OW 8281   3.345   1.423   2.194
 2732SOL    HW1 8282   3.322   1.474   2.117
 2732SOL    HW2 8283   3.300   1.340   2.182
 2733SOL     OW 8284   4.749   0.994   1.069
 2733SOL    HW1 8285   4.737   0.961   0.980
 2733SOL    HW2 8286   4.830   1.046   1.065
 2734SOL     OW 8287   3.124   1.596   0.211
 2734SOL    HW1 8288   3.097   1.632   0.296
 2734SOL    HW2 8289   3.219   1.600   0.212
 2735SOL     OW 8290   4.880   0.903   1.801
 2735SOL    HW1 8291   4.901   0.865   1.716
 2735SOL    HW2 8292   4.866   0.828   1.859
 2736SOL     OW 8293   4.516   0.865   0.742
 2736SOL    HW1 8294   4.438   0.812   0.761
 2736SOL    HW2 8295   4.511   0.882   0.648
 2737SOL     OW 8296   3.562   0.106   1.158
 2737SOL    HW1 8297   3.646   0.118   1.114
 2737SOL    HW2 8298   3.575   0.033   1.217
 2738SOL     OW 8299   4.138   0.164   0.600
 2738SOL    HW1 8300   4.147   0.100   0.671
 2738SOL    HW2 8301   4.205   0.138   0.536
 2739SOL     OW 8302   2.519   1.998   0.632
 2739SOL    HW1 8303   2.549   1.951   0.555
 2739SOL    HW2 8304   2.594   1.997   0.692
 2740SOL     OW 8305   3.422   2.428   0.579
 2740SOL    HW1 8306   3.448   2.444   0.488
 2740SOL    HW2 8307   3.502   2.441   0.629
 2741SOL     OW 8308   4.275   1.149   1.964
 2741SOL    HW1 8309   4.215   1.212   2.006
 2741SOL    HW2 8310   4.361   1.191   1.970
 2742SOL     OW 8311   3.040   0.493   1.647
 2742SOL    HW1 8312   3.054   0.582   1.681
 2742SOL    HW2 8313   3.084   0.436   1.710
 2743SOL     OW 8314   3.769   0.299   0.888
 2743SOL    HW1 8315   3.787   0.275   0.797
 2743SOL    HW2 8316   3.694   0.358   0.883
 2744SOL     OW 8317   2.901   1.828   1.841
 2744SOL    HW1 8318   2.988   1.838   1.803
 2744SOL    HW2 8319   2.913   1.764   1.911
 2745SOL     OW 8320   2.733   0.249   1.749
 2745SOL    HW1 8321   2.758   0.242   1.842
 2745SOL    HW2 8322   2.741   0.342   1.729
 2746SOL     OW 8323   3.043   1.505   1.553
 2746SOL    HW1 8324   3.012   1.576   1.498
 2746SOL    HW2 8325   3.110   1.544   1.608
 2747SOL     OW 8326   3.136   0.336   1.854
 2747SOL    HW1 8327   3.093   0.335   1.940
 2747SOL    HW2 8328   3.133   0.245   1.825
 2748SOL     OW 8329   4.217   0.517   1.988
 2748SOL    HW1 8330   4.213   0.489   2.079
 2748SOL    HW2 8331   4.274   0.453   1.945
 2749SOL     OW 8332   2.859   1.125   1.919
 2749SOL    HW1 8333   2.801   1.090   1.851
 2749SOL    HW2 8334   2.928   1.059   1.927
 2750SOL     OW 8335   3.547   1.789   1.646
 2750SOL    HW1 8336   3.568   1.839   1.567
 2750SOL    HW2 8337   3.545   1.698   1.617
 2751SOL     OW 8338   4.150   2.418   2.070
 2751SOL    HW1 8339   4.073   2.401   2.124
 2751SOL    HW2 8340   4.195   2.334   2.066
 2752SOL     OW 8341   2.975   0.277   1.487
 2752SOL    HW1 8342   2.996   0.219   1.559
 2752SOL    HW2 8343   2.997   0.365   1.519
 2753SOL     OW 8344   3.336   1.939   1.846
 2753SOL    HW1 8345   3.329   1.861   1.901
 2753SOL    HW2 8346   3.368   1.907   1.762
 2754SOL     OW 8347   3.905   2.466   1.508
 2754SOL    HW1 8348   3.896   2.546   1.560
 2754SOL    HW2 8349   3.884   2.395   1.569
 2755SOL     OW 8350   3.230   0.603   1.434
 2755SOL    HW1 8351   3.211   0.682   1.384
 2755SOL    HW2 8352   3.156   0.595   1.496
 2756SOL     OW 8353   4.545   2.116   2.066
 2756SOL    HW1 8354   4.530   2.055   2.138
 2756SOL    HW2 8355   4.580   2.062   1.995
 2757SOL     OW 8356   3.327   2.243   0.764
 2757SOL    HW1 8357   3.364   2.269   0.679
 2757SOL    HW2 8358   3.238   2.277   0.763
 2758SOL     OW 8359   4.853   0.730   1.996
 2758SOL    HW1 8360   4.940   0.693   2.010
 2758SOL    HW2 8361   4.802   0.659   1.957
 2759SOL     OW 8362   4.360   2.188   1.484
 2759SOL    HW1 8363   4.382   2.112   1.537
 2759SOL    HW2 8364   4.386   2.263   1.538
 2760SOL     OW 8365   3.116   0.257   0.520
 2760SOL    HW1 8366   3.193   0.312   0.529
 2760SOL    HW2 8367   3.098   0.226   0.608
 2761SOL     OW 8368   2.555   0.419   2.190
 2761SOL    HW1 8369   2.548   0.334   2.148
 2761SOL    HW2 8370   2.581   0.479   2.119
 2762SOL     OW 8371   3.549   2.484   0.336
 2762SOL    HW1 8372   3.599   2.565   0.337
 2762SOL    HW2 8373   3.509   2.482   0.249
 2763SOL     OW 8374   4.084   0.363   2.453
 2763SOL    HW1 8375   4.150   0.308   2.496
 2763SOL    HW2 8376   4.079   0.441   2.507
 2764SOL     OW 8377   4.706   2.179   0.481
 2764SOL    HW1 8378   4.790   2.184   0.436
 2764SOL    HW2 8379   4.701   2.089   0.513
 2765SOL     OW 8380   3.885   1.258   1.901
 2765SOL    HW1 8381   3.922   1.307   1.974
 2765SOL    HW2 8382   3.902   1.166   1.923
 2766SOL     OW 8383   4.827   0.697   1.365
 2766SOL    HW1 8384   4.862   0.610   1.348
 2766SOL    HW2 8385   4.744   0.700   1.318
 2767SOL     OW 8386   3.096   1.018   1.760
 2767SOL    HW1 8387   3.158   1.065   1.704
 2767SOL    HW2 8388   3.011   1.031   1.717
 2768SOL     OW 8389   4.537   1.932   2.295
 2768SOL    HW1 8390   4.521   1.940   2.389
 2768SOL    HW2 8391   4.585   1.850   2.285
 2769SOL     OW 8392   2.913   0.555   1.943
 2769SOL    HW1 8393   2.915   0.536   1.849
 2769SOL    HW2 8394   2.943   0.474   1.985
 2770SOL     OW 8395   4.588   0.841   1.537
 2770SOL    HW1 8396   4.496   0.839   1.562
 2770SOL    HW2 8397   4.630   0.776   1.594
 2771SOL     OW 8398   3.598   1.109   1.460
 2771SOL    HW1 8399   3.677   1.161   1.475
 2771SOL    HW2 8400   3.620   1.022   1.493
 2772SOL     OW 8401   4.820   1.300   1.238
 2772SOL    HW1 8402   4.911   1.318   1.217
 2772SOL    HW2 8403   4.773   1.380   1.216
 2773SOL     OW 8404   4.929   1.653   1.452
 2773SOL    HW1 8405   4.860   1.645   1.386
 2773SOL    HW2 8406   4.881   1.676   1.532
 2774SOL     OW 8407   4.572   1.733   1.850
 2774SOL    HW1 8408   4.599   1.671   1.917
 2774SOL    HW2 8409   4.476   1.726   1.847
 2775SOL     OW 8410   4.414   0.271   1.156
 2775SOL    HW1 8411   4.397   0.290   1.249
 2775SOL    HW2 8412   4.418   0.175   1.152
 2776SOL     OW 8413   4.419   1.862   0.996
 2776SOL    HW1 8414   4.391   1.889   0.909
 2776SOL    HW2 8415   4.387   1.773   1.006
 2777SOL     OW 8416   3.101   0.360   1.137
 2777SOL    HW1 8417   3.063   0.272   1.135
 2777SOL    HW2 8418   3.028   0.417   1.160
 2778SOL     OW 8419   2.665   2.202   1.197
 2778SOL    HW1 8420   2.599   2.225   1.132
 2778SOL    HW2 8421   2.722   2.139   1.154
 2779SOL     OW 8422   2.998   0.473   0.728
 2779SOL    HW1 8423   3.074   0.415   0.726
 2779SOL    HW2 8424   3.026   0.547   0.781
 2780SOL     OW 8425   3.921   1.166   2.379
 2780SOL    HW1 8426   3.866   1.109   2.433
 2780SOL    HW2 8427   3.999   1.113   2.360
 2781SOL     OW 8428   4.904   2.181   1.714
 2781SOL    HW1 8429   4.810   2.192   1.706
 2781SOL    HW2 8430   4.939   2.200   1.627
 2782SOL     OW 8431   4.548   0.867   1.205
 2782SOL    HW1 8432   4.617   0.920   1.165
 2782SOL    HW2 8433   4.573   0.862   1.298
 2783SOL     OW 8434   4.860   2.316   0.215
 2783SOL    HW1 8435   4.807   2.380   0.263
 2783SOL    HW2 8436   4.926   2.287   0.277
 2784SOL     OW 8437   3.088   2.292   1.343
 2784SOL    HW1 8438   3.114   2.279   1.251
 2784SOL    HW2 8439   3.000   2.330   1.337
 2785SOL     OW 8440   3.661   0.613   0.856
 2785SOL    HW1 8441   3.639   0.646   0.769
 2785SOL    HW2 8442   3.606   0.535   0.867
 2786SOL     OW 8443   2.826   1.590   0.020
 2786SOL    HW1 8444   2.735   1.611  -0.002
 2786SOL    HW2 8445   2.864   1.559  -0.062
 2787SOL     OW 8446   3.806   0.907   1.401
 2787SOL    HW1 8447   3.853   0.836   1.445
 2787SOL    HW2 8448   3.855   0.986   1.425
 2788SOL     OW 8449   4.564   0.468   0.103
 2788SOL    HW1 8450   4.576   0.452   0.009
 2788SOL    HW2 8451   4.647   0.506   0.131
 2789SOL     OW 8452   3.076   0.968   2.390
 2789SOL    HW1 8453   2.987   1.002   2.377
 2789SOL    HW2 8454   3.065   0.874   2.402
 2790SOL     OW 8455   2.575   1.401   1.457
 2790SOL    HW1 8456   2.509   1.380   1.523
 2790SOL    HW2 8457   2.550   1.488   1.425
 2791SOL     OW 8458   4.464   2.167   2.478
 2791SOL    HW1 8459   4.394   2.161   2.543
 2791SOL    HW2 8460   4.445   2.095   2.417
 2792SOL     OW 8461   2.539   2.225   0.404
 2792SOL    HW1 8462   2.634   2.234   0.407
 2792SOL    HW2 8463   2.517   2.178   0.485
 2793SOL     OW 8464   2.796   0.719   1.686
 2793SOL    HW1 8465   2.703   0.702   1.673
 2793SOL    HW2 8466   2.836   0.700   1.601
 2794SOL     OW 8467   4.497   0.482   1.394
 2794SOL    HW1 8468   4.506   0.476   1.299
 2794SOL    HW2 8469   4.447   0.404   1.418
 2795SOL     OW 8470   2.503   0.590   0.431
 2795SOL    HW1 8471   2.550   0.518   0.473
 2795SOL    HW2 8472   2.565   0.625   0.367
 2796SOL     OW 8473   2.540   0.885   0.987
 2796SOL    HW1 8474   2.462   0.836   0.960
 2796SOL    HW2 8475   2.534   0.967   0.938
 2797SOL     OW 8476   2.992   1.020   0.358
 2797SOL    HW1 8477   2.949   1.103   0.336
 2797SOL    HW2 8478   2.937   0.953   0.317
 2798SOL     OW 8479   3.537   0.879   1.693
 2798SOL    HW1 8480   3.617   0.932   1.699
 2798SOL    HW2 8481   3.475   0.923   1.750
 2799SOL     OW 8482   2.828   0.986   1.663
 2799SOL    HW1 8483   2.755   1.033   1.624
 2799SOL    HW2 8484   2.834   0.905   1.613
 2800SOL     OW 8485   3.962   2.136   1.601
 2800SOL    HW1 8486   3.877   2.120   1.561
 2800SOL    HW2 8487   4.020   2.153   1.527
 2801SOL     OW 8488   2.639   0.098   1.400
 2801SOL    HW1 8489   2.652   0.093   1.305
 2801SOL    HW2 8490   2.715   0.146   1.432
 2802SOL     OW 8491   2.538   2.397   2.116
 2802SOL    HW1 8492   2.492   2.333   2.171
 2802SOL    HW2 8493   2.512   2.376   2.027
 2803SOL     OW 8494   4.904   2.194   2.272
 2803SOL    HW1 8495   4.814   2.222   2.288
 2803SOL    HW2 8496   4.943   2.185   2.359
 2804SOL     OW 8497   2.756   0.868   2.171
 2804SOL    HW1 8498   2.781   0.960   2.186
 2804SOL    HW2 8499   2.780   0.851   2.080
 2805SOL     OW 8500   4.164   1.390   0.610
 2805SOL    HW1 8501   4.181   1.347   0.526
 2805SOL    HW2 8502   4.178   1.483   0.593
 2806SOL     OW 8503   3.463   1.314   1.594
 2806SOL    HW1 8504   3.520   1.350   1.661
 2806SOL    HW2 8505   3.504   1.232   1.568
 2807SOL     OW 8506   3.334   0.239   1.015
 2807SOL    HW1 8507   3.391   0.200   1.081
 2807SOL    HW2 8508   3.254   0.262   1.063
 2808SOL     OW 8509   4.528   1.508   2.237
 2808SOL    HW1 8510   4.562   1.432   2.285
 2808SOL    HW2 8511   4.595   1.526   2.171
 2809SOL     OW 8512   3.118   1.669   2.431
 2809SOL    HW1 8513   3.073   1.685   2.514
 2809SOL    HW2 8514   3.188   1.609   2.453
 2810SOL     OW 8515   4.814   0.989   1.476
 2810SOL    HW1 8516   4.735   0.957   1.520
 2810SOL    HW2 8517   4.825   0.931   1.401
 2811SOL     OW 8518   4.572   1.271   1.946
 2811SOL    HW1 8519   4.620   1.206   1.895
 2811SOL    HW2 8520   4.552   1.227   2.029
 2812SOL     OW 8521   2.509   0.850   2.336
 2812SOL    HW1 8522   2.580   0.795   2.303
 2812SOL    HW2 8523   2.451   0.861   2.261
 2813SOL     OW 8524   3.182   0.681   1.021
 2813SOL    HW1 8525   3.239   0.605   1.008
 2813SOL    HW2 8526   3.208   0.717   1.106
 2814SOL     OW 8527   2.562   1.217   0.072
 2814SOL    HW1 8528   2.539   1.204  -0.020
 2814SOL    HW2 8529   2.650   1.254   0.070
 2815SOL     OW 8530   4.679   0.519   1.961
 2815SOL    HW1 8531   4.639   0.513   1.874
 2815SOL    HW2 8532   4.664   0.433   2.000
 2816SOL     OW 8533   3.519   0.523   2.471
 2816SOL    HW1 8534   3.612   0.543   2.479
 2816SOL    HW2 8535   3.516   0.441   2.423
 2817SOL     OW 8536   4.655   1.976   1.856
 2817SOL    HW1 8537   4.621   1.887   1.856
 2817SOL    HW2 8538   4.701   1.985   1.772
 2818SOL     OW 8539   2.504   0.182   2.057
 2818SOL    HW1 8540   2.518   0.094   2.093
 2818SOL    HW2 8541   2.492   0.168   1.963
 2819SOL     OW 8542   4.712   1.417   0.651
 2819SOL    HW1 8543   4.739   1.384   0.737
 2819SOL    HW2 8544   4.622   1.448   0.664
 2820SOL     OW 8545   3.261   1.676   1.629
 2820SOL    HW1 8546   3.325   1.671   1.700
 2820SOL    HW2 8547   3.218   1.761   1.641
 2821SOL     OW 8548   4.098   2.193   1.347
 2821SOL    HW1 8549   4.114   2.281   1.314
 2821SOL    HW2 8550   4.183   2.164   1.382
 2822SOL     OW 8551   3.153   0.699   0.521
 2822SOL    HW1 8552   3.203   0.780   0.525
 2822SOL    HW2 8553   3.132   0.679   0.612
 2823SOL     OW 8554   4.693   2.452   0.419
 2823SOL    HW1 8555   4.636   2.509   0.470
 2823SOL    HW2 8556   4.652   2.366   0.425
 2824SOL     OW 8557   2.614   0.003   0.281
 2824SOL    HW1 8558   2.611   0.010   0.185
 2824SOL    HW2 8559   2.702  -0.032   0.299
 2825SOL     OW 8560   2.754   0.729   0.976
 2825SOL    HW1 8561   2.681   0.791   0.982
 2825SOL    HW2 8562   2.808   0.762   0.904
 2826SOL     OW 8563   4.884   1.734   0.876
 2826SOL    HW1 8564   4.883   1.720   0.781
 2826SOL    HW2 8565   4.842   1.820   0.887
 2827SOL     OW 8566   2.853   2.045   1.105
 2827SOL    HW1 8567   2.902   1.972   1.066
 2827SOL    HW2 8568   2.859   2.029   1.199
 2828SOL     OW 8569   4.963   0.758   0.648
 2828SOL    HW1 8570   4.990   0.842   0.610
 2828SOL    HW2 8571   4.985   0.693   0.581
 2829SOL     OW 8572   2.825   2.110   2.228
 2829SOL    HW1 8573   2.762   2.049   2.267
 2829SOL    HW2 8574   2.903   2.102   2.283
 2830SOL     OW 8575   2.589   1.118   1.486
 2830SOL    HW1 8576   2.595   1.210   1.460
 2830SOL    HW2 8577   2.496   1.099   1.486
 2831SOL     OW 8578   3.313   2.147   2.310
 2831SOL    HW1 8579   3.376   2.083   2.344
 2831SOL    HW2 8580   3.328   2.147   2.215
 2832SOL     OW 8581   3.158   1.942   1.255
 2832SOL    HW1 8582   3.081   1.893   1.284
 2832SOL    HW2 8583   3.160   2.019   1.312
 2833SOL     OW 8584   2.607   0.471   1.062
 2833SOL    HW1 8585   2.578   0.513   0.982
 2833SOL    HW2 8586   2.528   0.458   1.113
 2834SOL     OW 8587   3.154   0.976   2.068
 2834SOL    HW1 8588   3.180   0.899   2.117
 2834SOL    HW2 8589   3.086   0.945   2.008
 2835SOL     OW 8590   2.566   2.216   0.934
 2835SOL    HW1 8591   2.494   2.169   0.892
 2835SOL    HW2 8592   2.645   2.187   0.888
 2836SOL     OW 8593   3.968   1.102   1.261
 2836SOL    HW1 8594   3.945   1.022   1.215
 2836SOL    HW2 8595   3.886   1.152   1.264
 2837SOL     OW 8596   2.935   1.290   0.340
 2837SOL    HW1 8597   3.026   1.295   0.368
 2837SOL    HW2 8598   2.895   1.370   0.376
 2838SOL     OW 8599   4.879   1.646   0.614
 2838SOL    HW1 8600   4.960   1.603   0.587
 2838SOL    HW2 8601   4.816   1.574   0.625
 2839SOL     OW 8602   4.402   1.002   2.360
 2839SOL    HW1 8603   4.469   0.996   2.428
 2839SOL    HW2 8604   4.379   0.911   2.340
 2840SOL     OW 8605   3.558   2.170   1.782
 2840SOL    HW1 8606   3.515   2.256   1.783
 2840SOL    HW2 8607   3.489   2.109   1.806
 2841SOL     OW 8608   3.899   0.581   1.848
 2841SOL    HW1 8609   3.850   0.506   1.815
 2841SOL    HW2 8610   3.851   0.610   1.925
 2842SOL     OW 8611   4.291   0.733   0.776
 2842SOL    HW1 8612   4.234   0.748   0.852
 2842SOL    HW2 8613   4.257   0.653   0.737
 2843SOL     OW 8614   2.856   1.135   2.348
 2843SOL    HW1 8615   2.783   1.170   2.297
 2843SOL    HW2 8616   2.850   1.180   2.432
 2844SOL     OW 8617   2.529   0.111   1.649
 2844SOL    HW1 8618   2.601   0.169   1.671
 2844SOL    HW2 8619   2.545   0.086   1.558
 2845SOL     OW 8620   3.417   0.630   1.153
 2845SOL    HW1 8621   3.418   0.688   1.229
 2845SOL    HW2 8622   3.503   0.587   1.155
 2846SOL     OW 8623   3.262   0.664   2.474
 2846SOL    HW1 8624   3.202   0.631   2.542
 2846SOL    HW2 8625   3.336   0.604   2.477
 2847SOL     OW 8626   3.046   0.412   2.445
 2847SOL    HW1 8627   2.984   0.470   2.489
 2847SOL    HW2 8628   3.002   0.388   2.364
 2848SOL     OW 8629   3.114   2.464   1.561
 2848SOL    HW1 8630   3.145   2.522   1.492
 2848SOL    HW2 8631   3.114   2.377   1.521
 2849SOL     OW 8632   3.793   1.239   0.894
 2849SOL    HW1 8633   3.885   1.254   0.871
 2849SOL    HW2 8634   3.744   1.276   0.820
 2850SOL     OW 8635   3.775   1.765   0.444
 2850SOL    HW1 8636   3.793   1.852   0.410
 2850SOL    HW2 8637   3.693   1.739   0.402
 2851SOL     OW 8638   4.012   0.976   1.635
 2851SOL    HW1 8639   4.033   0.973   1.728
 2851SOL    HW2 8640   4.021   0.885   1.605
 2852SOL     OW 8641   2.728   1.356   1.761
 2852SOL    HW1 8642   2.694   1.269   1.781
 2852SOL    HW2 8643   2.671   1.388   1.691
 2853SOL     OW 8644   3.534   1.552   1.474
 2853SOL    HW1 8645   3.496   1.464   1.465
 2853SOL    HW2 8646   3.473   1.609   1.427
 2854SOL     OW 8647   3.951   1.695   0.631
 2854SOL    HW1 8648   3.900   1.718   0.553
 2854SOL    HW2 8649   3.885   1.665   0.693
 2855SOL     OW 8650   3.284   0.183   2.234
 2855SOL    HW1 8651   3.296   0.123   2.161
 2855SOL    HW2 8652   3.371   0.218   2.251
 2856SOL     OW 8653   4.172   1.971   1.908
 2856SOL    HW1 8654   4.188   2.065   1.921
 2856SOL    HW2 8655   4.125   1.944   1.987
 2857SOL     OW 8656   4.051   1.269   0.843
 2857SOL    HW1 8657   4.124   1.262   0.905
 2857SOL    HW2 8658   4.088   1.317   0.768
 2858SOL     OW 8659   3.126   1.766   0.443
 2858SOL    HW1 8660   3.191   1.824   0.403
 2858SOL    HW2 8661   3.146   1.768   0.537
 2859SOL     OW 8662   4.379   0.853   2.007
 2859SOL    HW1 8663   4.296   0.814   2.035
 2859SOL    HW2 8664   4.446   0.795   2.043
 2860SOL     OW 8665   3.090   1.066   0.630
 2860SOL    HW1 8666   3.063   1.051   0.540
 2860SOL    HW2 8667   3.185   1.055   0.629
 2861SOL     OW 8668   3.268   2.204   2.029
 2861SOL    HW1 8669   3.256   2.120   1.985
 2861SOL    HW2 8670   3.184   2.222   2.070
 2862SOL     OW 8671   3.624   2.271   0.094
 2862SOL    HW1 8672   3.632   2.192   0.041
 2862SOL    HW2 8673   3.565   2.328   0.044
 2863SOL     OW 8674   2.904   0.703   0.434
 2863SOL    HW1 8675   2.986   0.700   0.485
 2863SOL    HW2 8676   2.932   0.724   0.345
 2864SOL     OW 8677   3.477   2.118   0.471
 2864SOL    HW1 8678   3.507   2.106   0.561
 2864SOL    HW2 8679   3.531   2.190   0.438
 2865SOL     OW 8680   4.750   0.119   0.930
 2865SOL    HW1 8681   4.715   0.205   0.953
 2865SOL    HW2 8682   4.821   0.137   0.868
 2866SOL     OW 8683   3.167   1.547   1.953
 2866SOL    HW1 8684   3.120   1.464   1.944
 2866SOL    HW2 8685   3.123   1.592   2.025
 2867SOL     OW 8686   4.333   0.090   0.436
 2867SOL    HW1 8687   4.388   0.011   0.438
 2867SOL    HW2 8688   4.389   0.157   0.398
 2868SOL     OW 8689   4.199   2.426   0.781
 2868SOL    HW1 8690   4.260   2.491   0.815
 2868SOL    HW2 8691   4.176   2.373   0.858
 2869SOL     OW 8692   4.229   0.473   2.243
 2869SOL    HW1 8693   4.290   0.400   2.253
 2869SOL    HW2 8694   4.149   0.443   2.286
 2870SOL     OW 8695   2.503   0.553   0.823
 2870SOL    HW1 8696   2.533   0.625   0.768
 2870SOL    HW2 8697   2.518   0.474   0.770
 2871SOL     OW 8698   4.243   1.688   0.537
 2871SOL    HW1 8699   4.232   1.738   0.456
 2871SOL    HW2 8700   4.163   1.706   0.587
 2872SOL     OW 8701   3.894   0.689   1.555
 2872SOL    HW1 8702   3.868   0.621   1.616
 2872SOL    HW2 8703   3.892   0.647   1.469
 2873SOL     OW 8704   3.877   1.727   1.713
 2873SOL    HW1 8705   3.891   1.814   1.752
 2873SOL    HW2 8706   3.824   1.745   1.635
 2874SOL     OW 8707   4.373   0.199   0.812
 2874SOL    HW1 8708   4.329   0.284   0.822
 2874SOL    HW2 8709   4.394   0.172   0.901
 2875SOL     OW 8710   4.566   1.124   0.844
 2875SOL    HW1 8711   4.547   1.032   0.828
 2875SOL    HW2 8712   4.660   1.132   0.833
 2876SOL     OW 8713   2.616   0.489   1.551
 2876SOL    HW1 8714   2.677   0.544   1.503
 2876SOL    HW2 8715   2.584   0.425   1.487
 2877SOL     OW 8716   3.112   1.609   0.902
 2877SOL    HW1 8717   3.176   1.664   0.947
 2877SOL    HW2 8718   3.093   1.538   0.964
 2878SOL     OW 8719   3.890   0.568   1.303
 2878SOL    HW1 8720   3.972   0.567   1.253
 2878SOL    HW2 8721   3.821   0.557   1.237
 2879SOL     OW 8722   2.692   1.241   2.116
 2879SOL    HW1 8723   2.746   1.308   2.158
 2879SOL    HW2 8724   2.732   1.230   2.029
 2880SOL     OW 8725   4.198   2.273   0.169
 2880SOL    HW1 8726   4.244   2.196   0.204
 2880SOL    HW2 8727   4.116   2.239   0.135
 2881SOL     OW 8728   3.218   0.147   1.332
 2881SOL    HW1 8729   3.204   0.235   1.367
 2881SOL    HW2 8730   3.147   0.134   1.269
 2882SOL     OW 8731   3.900   0.391   0.363
 2882SOL    HW1 8732   3.924   0.471   0.408
 2882SOL    HW2 8733   3.965   0.382   0.293
 2883SOL     OW 8734   2.537   2.392   1.830
 2883SOL    HW1 8735   2.510   2.457   1.765
 2883SOL    HW2 8736   2.497   2.310   1.801
 2884SOL     OW 8737   3.861   1.174   1.556
 2884SOL    HW1 8738   3.932   1.113   1.576
 2884SOL    HW2 8739   3.904   1.248   1.514
 2885SOL     OW 8740   4.523   1.728   1.506
 2885SOL    HW1 8741   4.471   1.648   1.500
 2885SOL    HW2 8742   4.502   1.777   1.427
 2886SOL     OW 8743   3.523   1.661   2.267
 2886SOL    HW1 8744   3.493   1.583   2.219
 2886SOL    HW2 8745   3.616   1.667   2.248
 2887SOL     OW 8746   4.142   0.560   1.199
 2887SOL    HW1 8747   4.222   0.585   1.245
 2887SOL    HW2 8748   4.114   0.638   1.153
 2888SOL     OW 8749   4.100   0.862   0.143
 2888SOL    HW1 8750   4.073   0.903   0.061
 2888SOL    HW2 8751   4.074   0.924   0.211
 2889SOL     OW 8752   3.168   1.897   0.744
 2889SOL    HW1 8753   3.263   1.891   0.740
 2889SOL    HW2 8754   3.145   1.963   0.679
 2890SOL     OW 8755   3.879   2.389   0.870
 2890SOL    HW1 8756   3.787   2.414   0.873
 2890SOL    HW2 8757   3.908   2.415   0.783
 2891SOL     OW 8758   3.041   2.397   2.042
 2891SOL    HW1 8759   3.059   2.444   1.960
 2891SOL    HW2 8760   2.964   2.344   2.024
 2892SOL     OW 8761   4.803   2.327   0.704
 2892SOL    HW1 8762   4.767   2.354   0.620
 2892SOL    HW2 8763   4.731   2.281   0.747
 2893SOL     OW 8764   4.748   1.643   1.665
 2893SOL    HW1 8765   4.688   1.675   1.597
 2893SOL    HW2 8766   4.709   1.673   1.747
 2894SOL     OW 8767   2.505   1.832   1.125
 2894SOL    HW1 8768   2.470   1.862   1.041
 2894SOL    HW2 8769   2.574   1.771   1.102
 2895SOL     OW 8770   3.961   1.962   1.272
 2895SOL    HW1 8771   4.023   2.031   1.295
 2895SOL    HW2 8772   3.876   2.005   1.273
 2896SOL     OW 8773   2.836   2.375   1.324
 2896SOL    HW1 8774   2.819   2.460   1.284
 2896SOL    HW2 8775   2.785   2.313   1.272
 2897SOL     OW 8776   3.580   0.342   1.289
 2897SOL    HW1 8777   3.563   0.258   1.246
 2897SOL    HW2 8778   3.624   0.395   1.223
 2898SOL     OW 8779   4.676   1.268   1.464
 2898SOL    HW1 8780   4.725   1.267   1.381
 2898SOL    HW2 8781   4.723   1.207   1.520
 2899SOL     OW 8782   2.900   0.825   1.947
 2899SOL    HW1 8783   2.914   0.731   1.950
 2899SOL    HW2 8784   2.867   0.841   1.858
 2900SOL     OW 8785   2.747   1.304   0.939
 2900SOL    HW1 8786   2.838   1.275   0.934
 2900SOL    HW2 8787   2.729   1.342   0.852
 2901SOL     OW 8788   4.257   2.095   1.124
 2901SOL    HW1 8789   4.180   2.082   1.069
 2901SOL    HW2 8790   4.288   2.006   1.143
 2902SOL     OW 8791   3.519   0.309   0.645
 2902SOL    HW1 8792   3.582   0.325   0.575
 2902SOL    HW2 8793   3.435   0.337   0.610
 2903SOL     OW 8794   2.776   0.395   2.360
 2903SOL    HW1 8795   2.699   0.422   2.312
 2903SOL    HW2 8796   2.787   0.302   2.339
 2904SOL     OW 8797   3.852   2.159   2.047
 2904SOL    HW1 8798   3.778   2.159   2.108
 2904SOL    HW2 8799   3.928   2.139   2.101
 2905SOL     OW 8800   3.627   1.908   1.881
 2905SOL    HW1 8801   3.715   1.933   1.854
 2905SOL    HW2 8802   3.593   1.857   1.807
 2906SOL     OW 8803   3.931   0.608   0.816
 2906SOL    HW1 8804   3.836   0.616   0.829
 2906SOL    HW2 8805   3.969   0.640   0.898
 2907SOL     OW 8806   4.132   1.604   1.674
 2907SOL    HW1 8807   4.056   1.657   1.651
 2907SOL    HW2 8808   4.097   1.516   1.686
 2908SOL     OW 8809   4.699   2.438   1.742
 2908SOL    HW1 8810   4.695   2.419   1.835
 2908SOL    HW2 8811   4.733   2.527   1.736
 2909SOL     OW 8812   4.228   0.171   2.243
 2909SOL    HW1 8813   4.225   0.127   2.328
 2909SOL    HW2 8814   4.170   0.118   2.187
 2910SOL     OW 8815   2.816   2.018   1.369
 2910SOL    HW1 8816   2.795   1.964   1.446
 2910SOL    HW2 8817   2.777   2.103   1.389
 2911SOL     OW 8818   2.543   1.668   0.011
 2911SOL    HW1 8819   2.582   1.751  -0.016
 2911SOL    HW2 8820   2.449   1.681   0.001
 2912SOL     OW 8821   3.155   0.225   0.783
 2912SOL    HW1 8822   3.127   0.133   0.787
 2912SOL    HW2 8823   3.218   0.234   0.855
 2913SOL     OW 8824   4.067   1.988   2.170
 2913SOL    HW1 8825   3.991   1.938   2.199
 2913SOL    HW2 8826   4.125   1.989   2.246
 2914SOL     OW 8827   4.562   0.049   0.649
 2914SOL    HW1 8828   4.486   0.105   0.667
 2914SOL    HW2 8829   4.619   0.062   0.725
 2915SOL     OW 8830   3.133   1.345   0.048
 2915SOL    HW1 8831   3.108   1.414   0.110
 2915SOL    HW2 8832   3.120   1.385  -0.038
 2916SOL     OW 8833   4.801   0.383   1.594
 2916SOL    HW1 8834   4.862   0.310   1.594
 2916SOL    HW2 8835   4.717   0.343   1.572
 2917SOL     OW 8836   2.585   1.129   1.809
 2917SOL    HW1 8837   2.512   1.091   1.857
 2917SOL    HW2 8838   2.599   1.068   1.736
 2918SOL     OW 8839   2.974   2.402   0.851
 2918SOL    HW1 8840   3.029   2.402   0.772
 2918SOL    HW2 8841   2.894   2.447   0.824
 2919SOL     OW 8842   4.861   1.986   1.319
 2919SOL    HW1 8843   4.927   1.954   1.257
 2919SOL    HW2 8844   4.781   1.990   1.267
 2920SOL     OW 8845   4.024   0.216   1.688
 2920SOL    HW1 8846   4.030   0.304   1.653
 2920SOL    HW2 8847   3.967   0.224   1.765
 2921SOL     OW 8848   4.641   0.623   1.144
 2921SOL    HW1 8849   4.599   0.707   1.131
 2921SOL    HW2 8850   4.700   0.613   1.069
 2922SOL     OW 8851   3.339   1.117   0.557
 2922SOL    HW1 8852   3.382   1.039   0.523
 2922SOL    HW2 8853   3.405   1.158   0.614
 2923SOL     OW 8854   4.552   1.281   2.398
 2923SOL    HW1 8855   4.561   1.202   2.451
 2923SOL    HW2 8856   4.631   1.331   2.416
 2924SOL     OW 8857   4.962   1.658   0.290
 2924SOL    HW1 8858   4.930   1.568   0.299
 2924SOL    HW2 8859   5.003   1.661   0.203
 2925SOL     OW 8860   2.973   1.870   0.943
 2925SOL    HW1 8861   3.024   1.896   0.866
 2925SOL    HW2 8862   3.027   1.802   0.984
 2926SOL     OW 8863   3.882   2.421   2.247
 2926SOL    HW1 8864   3.893   2.512   2.218
 2926SOL    HW2 8865   3.787   2.410   2.254
 2927SOL     OW 8866   2.720   1.961   0.817
 2927SOL    HW1 8867   2.782   1.969   0.890
 2927SOL    HW2 8868   2.706   1.867   0.807
 2928SOL     OW 8869   3.179   1.261   1.574
 2928SOL    HW1 8870   3.136   1.347   1.581
 2928SOL    HW2 8871   3.272   1.282   1.564
 2929SOL     OW 8872   3.633   1.450   0.758
 2929SOL    HW1 8873   3.552   1.461   0.809
 2929SOL    HW2 8874   3.702   1.481   0.817
 2930SOL     OW 8875   3.729   0.498   1.101
 2930SOL    HW1 8876   3.732   0.412   1.058
 2930SOL    HW2 8877   3.728   0.561   1.028
 2931SOL     OW 8878   3.116   2.093   0.558
 2931SOL    HW1 8879   3.190   2.142   0.522
 2931SOL    HW2 8880   3.045   2.156   0.563
 2932SOL     OW 8881   3.038   0.039   2.334
 2932SOL    HW1 8882   3.028  -0.041   2.282
 2932SOL    HW2 8883   3.116   0.081   2.298
 2933SOL     OW 8884   3.006   1.348   1.868
 2933SOL    HW1 8885   2.929   1.390   1.830
 2933SOL    HW2 8886   2.975   1.260   1.892
 2934SOL     OW 8887   2.521   0.768   1.564
 2934SOL    HW1 8888   2.438   0.730   1.535
 2934SOL    HW2 8889   2.551   0.820   1.489
 2935SOL     OW 8890   4.198   1.280   1.076
 2935SOL    HW1 8891   4.215   1.208   1.137
 2935SOL    HW2 8892   4.285   1.306   1.046
 2936SOL     OW 8893   4.875   1.416   0.220
 2936SOL    HW1 8894   4.926   1.336   0.213
 2936SOL    HW2 8895   4.830   1.424   0.136
 2937SOL     OW 8896   3.641   0.062   0.675
 2937SOL    HW1 8897   3.597   0.147   0.673
 2937SOL    HW2 8898   3.729   0.080   0.640
 2938SOL     OW 8899   2.677   0.014   0.014
 2938SOL    HW1 8900   2.754   0.065   0.039
 2938SOL    HW2 8901   2.694  -0.011  -0.077
 2939SOL     OW 8902   3.795   1.856   1.484
 2939SOL    HW1 8903   3.740   1.932   1.464
 2939SOL    HW2 8904   3.881   1.878   1.449
 2940SOL     OW 8905   4.079   0.755   2.048
 2940SOL    HW1 8906   4.113   0.666   2.034
 2940SOL    HW2 8907   4.041   0.752   2.136
 2941SOL     OW 8908   3.380   1.664   1.873
 2941SOL    HW1 8909   3.292   1.628   1.888
 2941SOL    HW2 8910   3.436   1.615   1.933
 2942SOL     OW 8911   3.218   0.748   2.196
 2942SOL    HW1 8912   3.233   0.723   2.288
 2942SOL    HW2 8913   3.146   0.691   2.168
 2943SOL     OW 8914   3.471   1.262   1.088
 2943SOL    HW1 8915   3.523   1.249   1.009
 2943SOL    HW2 8916   3.395   1.311   1.058
 2944SOL     OW 8917   4.075   0.444   1.552
 2944SOL    HW1 8918   4.043   0.480   1.469
 2944SOL    HW2 8919   4.092   0.521   1.606
 2945SOL     OW 8920   2.583   0.809   1.270
 2945SOL    HW1 8921   2.589   0.842   1.181
 2945SOL    HW2 8922   2.492   0.781   1.279
 2946SOL     OW 8923   3.859   2.003   1.831
 2946SOL    HW1 8924   3.847   2.052   1.912
 2946SOL    HW2 8925   3.918   2.057   1.778
 2947SOL     OW 8926   2.872   2.065   0.441
 2947SOL    HW1 8927   2.963   2.042   0.459
 2947SOL    HW2 8928   2.822   1.988   0.469
 2948SOL     OW 8929   3.326   1.691   1.358
 2948SOL    HW1 8930   3.251   1.726   1.310
 2948SOL    HW2 8931   3.292   1.674   1.446
 2949SOL     OW 8932   3.696   2.119   1.537
 2949SOL    HW1 8933   3.647   2.116   1.455
 2949SOL    HW2 8934   3.629   2.116   1.606
 2950SOL     OW 8935   4.834   2.003   0.938
 2950SOL    HW1 8936   4.787   2.066   0.883
 2950SOL    HW2 8937   4.789   2.007   1.023
 2951SOL     OW 8938   3.044   2.132   2.394
 2951SOL    HW1 8939   3.132   2.170   2.390
 2951SOL    HW2 8940   3.049   2.067   2.465
 2952SOL     OW 8941   4.173   0.965   0.624
 2952SOL    HW1 8942   4.231   1.040   0.638
 2952SOL    HW2 8943   4.207   0.897   0.681
 2953SOL     OW 8944   3.773   1.292   1.281
 2953SOL    HW1 8945   3.770   1.367   1.341
 2953SOL    HW2 8946   3.686   1.291   1.240
 2954SOL     OW 8947   2.936   1.033   1.019
 2954SOL    HW1 8948   3.002   0.998   1.079
 2954SOL    HW2 8949   2.882   1.091   1.074
 2955SOL     OW 8950   2.848   1.414   2.230
 2955SOL    HW1 8951   2.940   1.409   2.207
 2955SOL    HW2 8952   2.814   1.487   2.177
 2956SOL     OW 8953   4.342   1.166   0.646
 2956SOL    HW1 8954   4.403   1.169   0.720
 2956SOL    HW2 8955   4.297   1.250   0.649
 2957SOL     OW 8956   4.139   1.552   1.299
 2957SOL    HW1 8957   4.077   1.493   1.257
 2957SOL    HW2 8958   4.195   1.494   1.352
 2958SOL     OW 8959   3.292   2.165   0.222
 2958SOL    HW1 8960   3.231   2.095   0.197
 2958SOL    HW2 8961   3.346   2.127   0.291
 2959SOL     OW 8962   2.703   1.703   1.348
 2959SOL    HW1 8963   2.708   1.710   1.253
 2959SOL    HW2 8964   2.610   1.687   1.365
 2960SOL     OW 8965   3.129   1.045   1.426
 2960SOL    HW1 8966   3.205   1.100   1.410
 2960SOL    HW2 8967   3.080   1.091   1.494
 2961SOL     OW 8968   4.219   1.122   1.326
 2961SOL    HW1 8969   4.126   1.114   1.303
 2961SOL    HW2 8970   4.219   1.136   1.421
 2962SOL     OW 8971   3.710   0.119   1.764
 2962SOL    HW1 8972   3.624   0.128   1.722
 2962SOL    HW2 8973   3.707   0.033   1.805
 2963SOL     OW 8974   3.222   2.107   1.476
 2963SOL    HW1 8975   3.313   2.081   1.458
 2963SOL    HW2 8976   3.214   2.194   1.438
 2964SOL     OW 8977   4.761   1.044   0.480
 2964SOL    HW1 8978   4.673   1.007   0.483
 2964SOL    HW2 8979   4.785   1.043   0.387
 2965SOL     OW 8980   2.854   1.309   1.409
 2965SOL    HW1 8981   2.905   1.349   1.480
 2965SOL    HW2 8982   2.769   1.353   1.414
 2966SOL     OW 8983   3.421   1.912   0.769
 2966SOL    HW1 8984   3.500   1.966   0.776
 2966SOL    HW2 8985   3.400   1.887   0.859
 2967SOL     OW 8986   3.726   0.226   2.454
 2967SOL    HW1 8987   3.724   0.168   2.530
 2967SOL    HW2 8988   3.810   0.272   2.461
 2968SOL     OW 8989   4.387   1.607   0.901
 2968SOL    HW1 8990   4.411   1.533   0.956
 2968SOL    HW2 8991   4.425   1.586   0.815
 2969SOL     OW 8992   3.409   1.549   0.363
 2969SOL    HW1 8993   3.337   1.494   0.393
 2969SOL    HW2 8994   3.445   1.587   0.444
 2970SOL     OW 8995   4.152   0.404   0.750
 2970SOL    HW1 8996   4.119   0.324   0.708
 2970SOL    HW2 8997   4.076   0.462   0.753
 2971SOL     OW 8998   4.787   1.705   2.422
 2971SOL    HW1 8999   4.709   1.741   2.466
 2971SOL    HW2 9000   4.775   1.729   2.330
 2972SOL     OW 9001   3.232   0.921   0.298
 2972SOL    HW1 9002   3.144   0.952   0.316
 2972SOL    HW2 9003   3.264   0.978   0.228
 2973SOL     OW 9004   3.597   2.379   0.888
 2973SOL    HW1 9005   3.506   2.408   0.888
 2973SOL    HW2 9006   3.637   2.425   0.814
 2974SOL     OW 9007   2.556   2.430   0.614
 2974SOL    HW1 9008   2.481   2.388   0.655
 2974SOL    HW2 9009   2.553   2.403   0.523
 2975SOL     OW 9010   2.734   0.038   0.808
 2975SOL    HW1 9011   2.672   0.052   0.880
 2975SOL    HW2 9012   2.682  -0.005   0.740
 2976SOL     OW 9013   3.721   0.400   1.788
 2976SOL    HW1 9014   3.687   0.418   1.700
 2976SOL    HW2 9015   3.746   0.308   1.786
 2977SOL     OW 9016   2.987   1.235   0.834
 2977SOL    HW1 9017   2.999   1.177   0.760
 2977SOL    HW2 9018   3.049   1.203   0.900
 2978SOL     OW 9019   2.623   1.932   2.376
 2978SOL    HW1 9020   2.597   1.998   2.440
 2978SOL    HW2 9021   2.573   1.954   2.298
 2979SOL     OW 9022   3.075   0.075   1.802
 2979SOL    HW1 9023   3.113   0.043   1.720
 2979SOL    HW2 9024   2.981   0.072   1.787
 2980SOL     OW 9025   3.471   2.285   1.216
 2980SOL    HW1 9026   3.432   2.237   1.143
 2980SOL    HW2 9027   3.559   2.305   1.186
 2981SOL     OW 9028   4.955   1.491   0.961
 2981SOL    HW1 9029   4.970   1.495   1.055
 2981SOL    HW2 9030   4.921   1.577   0.938
 2982SOL     OW 9031   2.616   0.615   2.023
 2982SOL    HW1 9032   2.609   0.587   1.931
 2982SOL    HW2 9033   2.704   0.653   2.030
 2983SOL     OW 9034   4.294   1.151   1.608
 2983SOL    HW1 9035   4.385   1.180   1.623
 2983SOL    HW2 9036   4.291   1.064   1.647
 2984SOL     OW 9037   4.034   0.980   0.381
 2984SOL    HW1 9038   4.054   1.073   0.371
 2984SOL    HW2 9039   4.087   0.952   0.455
 2985SOL     OW 9040   2.762   0.095   1.137
 2985SOL    HW1 9041   2.783   0.167   1.077
 2985SOL    HW2 9042   2.685   0.053   1.097
 2986SOL     OW 9043   2.741   0.547   0.604
 2986SOL    HW1 9044   2.805   0.529   0.673
 2986SOL    HW2 9045   2.778   0.622   0.556
 2987SOL     OW 9046   2.889   0.847   0.196
 2987SOL    HW1 9047   2.941   0.804   0.128
 2987SOL    HW2 9048   2.816   0.886   0.148
 2988SOL     OW 9049   3.902   1.919   2.479
 2988SOL    HW1 9050   3.919   1.851   2.544
 2988SOL    HW2 9051   3.817   1.954   2.503
 2989SOL     OW 9052   3.760   1.009   1.740
 2989SOL    HW1 9053   3.846   0.980   1.771
 2989SOL    HW2 9054   3.780   1.071   1.670
 2990SOL     OW 9055   4.493   0.261   0.307
 2990SOL    HW1 9056   4.530   0.279   0.221
 2990SOL    HW2 9057   4.473   0.347   0.344
 2991SOL     OW 9058   3.496   1.661   0.596
 2991SOL    HW1 9059   3.451   1.742   0.621
 2991SOL    HW2 9060   3.566   1.652   0.660
 2992SOL     OW 9061   3.478   1.908   1.121
 2992SOL    HW1 9062   3.428   1.985   1.094
 2992SOL    HW2 9063   3.567   1.926   1.090
 2993SOL     OW 9064   3.452   1.936   1.405
 2993SOL    HW1 9065   3.405   1.855   1.426
 2993SOL    HW2 9066   3.473   1.928   1.312
 2994SOL     OW 9067   2.899   1.462   1.173
 2994SOL    HW1 9068   2.846   1.392   1.212
 2994SOL    HW2 9069   2.980   1.462   1.224
 2995SOL     OW 9070   4.369   0.155   2.014
 2995SOL    HW1 9071   4.329   0.159   2.101
 2995SOL    HW2 9072   4.316   0.092   1.966
 2996SOL     OW 9073   4.492   1.593   0.624
 2996SOL    HW1 9074   4.401   1.607   0.600
 2996SOL    HW2 9075   4.538   1.585   0.540
 2997SOL     OW 9076   3.227   1.367   1.031
 2997SOL    HW1 9077   3.163   1.358   1.102
 2997SOL    HW2 9078   3.212   1.290   0.976
 2998SOL     OW 9079   4.931   1.261   0.554
 2998SOL    HW1 9080   4.888   1.178   0.532
 2998SOL    HW2 9081   4.860   1.320   0.579
 2999SOL     OW 9082   2.811   1.308   0.087
 2999SOL    HW1 9083   2.872   1.283   0.157
 2999SOL    HW2 9084   2.822   1.403   0.079
 3000SOL     OW 9085   4.536   0.461   1.722
 3000SOL    HW1 9086   4.475   0.390   1.741
 3000SOL    HW2 9087   4.511   0.492   1.634
 3001SOL     OW 9088   2.895   0.327   0.352
 3001SOL    HW1 9089   2.901   0.237   0.322
 3001SOL    HW2 9090   2.971   0.337   0.410
 3002SOL     OW 9091   4.158   1.980   0.393
 3002SOL    HW1 9092   4.178   2.035   0.469
 3002SOL    HW2 9093   4.062   1.985   0.385
 3003SOL     OW 9094   3.627   2.048   2.441
 3003SOL    HW1 9095   3.560   1.988   2.474
 3003SOL    HW2 9096   3.620   2.041   2.346
 3004SOL     OW 9097   3.848   0.186   1.115
 3004SOL    HW1 9098   3.938   0.206   1.140
 3004SOL    HW2 9099   3.841   0.219   1.025
 3005SOL     OW 9100   3.043   0.078   1.092
 3005SOL    HW1 9101   2.973   0.043   1.148
 3005SOL    HW2 9102   3.026   0.039   1.006
 3006SOL     OW 9103   4.686   2.004   1.545
 3006SOL    HW1 9104   4.610   1.968   1.500
 3006SOL    HW2 9105   4.755   2.005   1.478
 3007SOL     OW 9106   4.623   2.350   1.028
 3007SOL    HW1 9107   4.666   2.430   0.998
 3007SOL    HW2 9108   4.648   2.342   1.120
 3008SOL     OW 9109   3.522   0.881   2.482
 3008SOL    HW1 9110   3.494   0.961   2.527
 3008SOL    HW2 9111   3.472   0.811   2.524
 3009SOL     OW 9112   4.960   1.393   1.939
 3009SOL    HW1 9113   5.035   1.355   1.985
 3009SOL    HW2 9114   4.959   1.349   1.854
 3010SOL     OW 9115   3.348   1.286   1.856
 3010SOL    HW1 9116   3.289   1.355   1.826
 3010SOL    HW2 9117   3.436   1.321   1.838
 3011SOL     OW 9118   3.010   0.336   2.088
 3011SOL    HW1 9119   2.956   0.257   2.086
 3011SOL    HW2 9120   3.078   0.317   2.153
 3012SOL     OW 9121   3.383   0.865   0.512
 3012SOL    HW1 9122   3.350   0.879   0.423
 3012SOL    HW2 9123   3.449   0.797   0.502
 3013SOL     OW 9124   3.137   0.824   1.302
 3013SOL    HW1 9125   3.048   0.804   1.272
 3013SOL    HW2 9126   3.127   0.904   1.353
 3014SOL     OW 9127   2.874   1.697   0.464
 3014SOL    HW1 9128   2.964   1.729   0.459
 3014SOL    HW2 9129   2.874   1.636   0.538
 3015SOL     OW 9130   3.364   1.160   1.308
 3015SOL    HW1 9131   3.441   1.148   1.362
 3015SOL    HW2 9132   3.395   1.209   1.232
 3016SOL     OW 9133   4.581   2.418   1.374
 3016SOL    HW1 9134   4.577   2.402   1.468
 3016SOL    HW2 9135   4.528   2.348   1.336
 3017SOL     OW 9136   3.398   0.206   1.713
 3017SOL    HW1 9137   3.345   0.253   1.777
 3017SOL    HW2 9138   3.385   0.255   1.632
 3018SOL     OW 9139   4.867   1.386   1.677
 3018SOL    HW1 9140   4.808   1.461   1.664
 3018SOL    HW2 9141   4.809   1.310   1.678
 3019SOL     OW 9142   3.425   1.528   0.936
 3019SOL    HW1 9143   3.340   1.511   0.976
 3019SOL    HW2 9144   3.480   1.559   1.008
 3020SOL     OW 9145   4.465   1.352   0.979
 3020SOL    HW1 9146   4.485   1.354   1.073
 3020SOL    HW2 9147   4.500   1.269   0.949
 3021SOL     OW 9148   3.481   0.878   2.207
 3021SOL    HW1 9149   3.385   0.883   2.202
 3021SOL    HW2 9150   3.500   0.886   2.301
 3022SOL     OW 9151   3.889   2.384   0.549
 3022SOL    HW1 9152   3.958   2.389   0.483
 3022SOL    HW2 9153   3.840   2.305   0.526
 3023SOL     OW 9154   2.822   2.062   0.153
 3023SOL    HW1 9155   2.800   1.969   0.158
 3023SOL    HW2 9156   2.813   2.093   0.244
 3024SOL     OW 9157   2.779   1.683   0.808
 3024SOL    HW1 9158   2.777   1.604   0.753
 3024SOL    HW2 9159   2.871   1.697   0.828
 3025SOL     OW 9160   2.662   0.286   0.575
 3025SOL    HW1 9161   2.718   0.363   0.583
 3025SOL    HW2 9162   2.723   0.213   0.568
 3026SOL     OW 9163   3.058   1.667   2.164
 3026SOL    HW1 9164   3.100   1.684   2.248
 3026SOL    HW2 9165   2.969   1.699   2.175
 3027SOL     OW 9166   4.081   1.327   1.672
 3027SOL    HW1 9167   4.028   1.282   1.737
 3027SOL    HW2 9168   4.158   1.272   1.661
 3028SOL     OW 9169   3.138   1.220   2.214
 3028SOL    HW1 9170   3.100   1.166   2.284
 3028SOL    HW2 9171   3.133   1.165   2.136
 3029SOL     OW 9172   2.724   0.862   0.527
 3029SOL    HW1 9173   2.752   0.879   0.617
 3029SOL    HW2 9174   2.791   0.804   0.492
 3030SOL     OW 9175   3.962   1.431   1.094
 3030SOL    HW1 9176   3.902   1.369   1.136
 3030SOL    HW2 9177   4.035   1.376   1.063
 3031SOL     OW 9178   3.430   2.396   1.713
 3031SOL    HW1 9179   3.412   2.379   1.621
 3031SOL    HW2 9180   3.433   2.491   1.719
 3032SOL     OW 9181   2.813   1.762   2.213
 3032SOL    HW1 9182   2.763   1.737   2.135
 3032SOL    HW2 9183   2.751   1.809   2.268
 3033SOL     OW 9184   2.528   1.166   2.301
 3033SOL    HW1 9185   2.592   1.169   2.230
 3033SOL    HW2 9186   2.462   1.104   2.271
 3034SOL     OW 9187   2.740   1.531   2.000
 3034SOL    HW1 9188   2.744   1.489   1.914
 3034SOL    HW2 9189   2.689   1.610   1.986
 3035SOL     OW 9190   4.330   0.755   2.292
 3035SOL    HW1 9191   4.397   0.726   2.229
 3035SOL    HW2 9192   4.274   0.678   2.304
 3036SOL     OW 9193   4.082   1.610   2.243
 3036SOL    HW1 9194   4.146   1.646   2.181
 3036SOL    HW2 9195   4.110   1.643   2.328
 3037SOL     OW 9196   3.821   1.468   1.469
 3037SOL    HW1 9197   3.754   1.536   1.481
 3037SOL    HW2 9198   3.856   1.455   1.557
 3038SOL     OW 9199   2.779   1.885   1.597
 3038SOL    HW1 9200   2.837   1.846   1.663
 3038SOL    HW2 9201   2.736   1.810   1.556
 3039SOL     OW 9202   3.996   1.370   2.137
 3039SOL    HW1 9203   4.044   1.447   2.166
 3039SOL    HW2 9204   3.982   1.319   2.217
 3040SOL     OW 9205   3.793   1.698   2.004
 3040SOL    HW1 9206   3.747   1.775   1.971
 3040SOL    HW2 9207   3.874   1.694   1.953
 3041SOL     OW 9208   3.749   0.396   1.506
 3041SOL    HW1 9209   3.673   0.339   1.488
 3041SOL    HW2 9210   3.747   0.460   1.435
 3042SOL     OW 9211   4.610   2.146   0.818
 3042SOL    HW1 9212   4.603   2.215   0.884
 3042SOL    HW2 9213   4.521   2.134   0.786
 3043SOL     OW 9214   4.395   1.961   1.613
 3043SOL    HW1 9215   4.319   1.934   1.665
 3043SOL    HW2 9216   4.450   1.883   1.609
 3044SOL     OW 9217   4.151   1.781   0.823
 3044SOL    HW1 9218   4.229   1.725   0.831
 3044SOL    HW2 9219   4.086   1.726   0.780
 3045SOL     OW 9220   2.558   1.112   0.832
 3045SOL    HW1 9221   2.628   1.139   0.890
 3045SOL    HW2 9222   2.585   1.143   0.745
 3046SOL     OW 9223   3.614   2.436   2.260
 3046SOL    HW1 9224   3.574   2.502   2.316
 3046SOL    HW2 9225   3.569   2.445   2.176
 3047SOL     OW 9226   3.110   1.279   1.266
 3047SOL    HW1 9227   3.183   1.242   1.316
 3047SOL    HW2 9228   3.035   1.223   1.287
 3048SOL     OW 9229   4.064   0.934   2.381
 3048SOL    HW1 9230   4.118   0.926   2.302
 3048SOL    HW2 9231   3.994   0.869   2.369
 3049SOL     OW 9232   3.531   0.626   1.834
 3049SOL    HW1 9233   3.538   0.683   1.758
 3049SOL    HW2 9234   3.565   0.542   1.803
 3050SOL     OW 9235   2.927   0.563   1.134
 3050SOL    HW1 9236   2.994   0.588   1.070
 3050SOL    HW2 9237   2.845   0.593   1.095
 3051SOL     OW 9238   3.202   1.338   0.428
 3051SOL    HW1 9239   3.246   1.263   0.467
 3051SOL    HW2 9240   3.171   1.389   0.503
 3052SOL     OW 9241   4.836   2.383   1.288
 3052SOL    HW1 9242   4.885   2.323   1.344
 3052SOL    HW2 9243   4.752   2.395   1.334
 3053SOL     OW 9244   3.586   1.540   2.020
 3053SOL    HW1 9245   3.656   1.603   2.009
 3053SOL    HW2 9246   3.616   1.481   2.090
 3054SOL     OW 9247   4.633   2.368   2.014
 3054SOL    HW1 9248   4.602   2.287   2.055
 3054SOL    HW2 9249   4.678   2.414   2.085
 3055SOL     OW 9250   3.631   0.704   0.591
 3055SOL    HW1 9251   3.687   0.778   0.568
 3055SOL    HW2 9252   3.656   0.635   0.529
 3056SOL     OW 9253   3.679   0.693   0.242
 3056SOL    HW1 9254   3.585   0.686   0.259
 3056SOL    HW2 9255   3.709   0.763   0.300
 3057SOL     OW 9256   4.336   0.697   1.332
 3057SOL    HW1 9257   4.397   0.754   1.285
 3057SOL    HW2 9258   4.390   0.624   1.362
 3058SOL     OW 9259   3.635   1.015   1.117
 3058SOL    HW1 9260   3.595   1.093   1.155
 3058SOL    HW2 9261   3.606   0.943   1.173
 3059SOL     OW 9262   3.533   0.269   2.289
 3059SOL    HW1 9263   3.573   0.336   2.233
 3059SOL    HW2 9264   3.602   0.243   2.349
 3060SOL     OW 9265   4.698   1.520   1.988
 3060SOL    HW1 9266   4.775   1.500   1.935
 3060SOL    HW2 9267   4.647   1.438   1.988
 3061SOL     OW 9268   2.648   0.698   0.233
 3061SOL    HW1 9269   2.568   0.720   0.185
 3061SOL    HW2 9270   2.702   0.777   0.226
 3062SOL     OW 9271   2.586   1.312   1.157
 3062SOL    HW1 9272   2.627   1.328   1.071
 3062SOL    HW2 9273   2.621   1.227   1.184
 3063SOL     OW 9274   4.844   0.391   1.206
 3063SOL    HW1 9275   4.773   0.385   1.143
 3063SOL    HW2 9276   4.851   0.303   1.243
 3064SOL     OW 9277   3.622   1.368   1.793
 3064SOL    HW1 9278   3.701   1.322   1.820
 3064SOL    HW2 9279   3.620   1.446   1.848
 3065SOL     OW 9280   3.895   0.977   1.015
 3065SOL    HW1 9281   3.894   1.059   0.966
 3065SOL    HW2 9282   3.804   0.966   1.044
 3066SOL     OW 9283   2.775   0.687   1.401
 3066SOL    HW1 9284   2.718   0.735   1.342
 3066SOL    HW2 9285   2.815   0.619   1.346
 3067SOL     OW 9286   3.867   0.240   0.626
 3067SOL    HW1 9287   3.888   0.297   0.551
 3067SOL    HW2 9288   3.923   0.164   0.615
 3068SOL     OW 9289   2.886   0.544   0.162
 3068SOL    HW1 9290   2.876   0.478   0.231
 3068SOL    HW2 9291   2.809   0.600   0.173
 3069SOL     OW 9292   3.749   2.128   1.233
 3069SOL    HW1 9293   3.759   2.153   1.141
 3069SOL    HW2 9294   3.780   2.205   1.282
 3070SOL     OW 9295   2.927   0.089   0.081
 3070SOL    HW1 9296   2.967   0.077  -0.006
 3070SOL    HW2 9297   3.001   0.106   0.139
 3071SOL     OW 9298   3.568   1.311   2.260
 3071SOL    HW1 9299   3.481   1.350   2.250
 3071SOL    HW2 9300   3.569   1.237   2.200
 3072SOL     OW 9301   2.714   1.651   1.064
 3072SOL    HW1 9302   2.765   1.572   1.083
 3072SOL    HW2 9303   2.716   1.658   0.968
 3073SOL     OW 9304   3.777   0.888   0.424
 3073SOL    HW1 9305   3.868   0.910   0.407
 3073SOL    HW2 9306   3.727   0.962   0.389
 3074SOL     OW 9307   4.210   1.980   2.443
 3074SOL    HW1 9308   4.231   1.888   2.459
 3074SOL    HW2 9309   4.120   1.990   2.473
 3075SOL     OW 9310   4.422   2.329   0.345
 3075SOL    HW1 9311   4.405   2.241   0.310
 3075SOL    HW2 9312   4.429   2.385   0.267
 3076SOL     OW 9313   4.743   1.606   1.162
 3076SOL    HW1 9314   4.649   1.619   1.154
 3076SOL    HW2 9315   4.780   1.651   1.086
 3077SOL     OW 9316   3.558   0.796   1.322
 3077SOL    HW1 9317   3.509   0.816   1.402
 3077SOL    HW2 9318   3.650   0.808   1.347
 3078SOL     OW 9319   3.441   2.451   2.040
 3078SOL    HW1 9320   3.491   2.453   1.959
 3078SOL    HW2 9321   3.371   2.388   2.022
 3079SOL     OW 9322   2.793   0.314   0.995
 3079SOL    HW1 9323   2.733   0.385   1.018
 3079SOL    HW2 9324   2.841   0.347   0.919
 3080SOL     OW 9325   4.419   1.886   1.301
 3080SOL    HW1 9326   4.442   1.846   1.217
 3080SOL    HW2 9327   4.324   1.877   1.307
 3081SOL     OW 9328   2.764   0.404   1.306
 3081SOL    HW1 9329   2.784   0.415   1.213
 3081SOL    HW2 9330   2.849   0.393   1.348
 3082SOL     OW 9331   4.042   2.468   0.311
 3082SOL    HW1 9332   4.088   2.549   0.332
 3082SOL    HW2 9333   4.108   2.412   0.270
 3083SOL     OW 9334   3.142   2.457   0.639
 3083SOL    HW1 9335   3.234   2.475   0.623
 3083SOL    HW2 9336   3.112   2.411   0.560
 3084SOL     OW 9337   3.906   0.721   2.268
 3084SOL    HW1 9338   3.834   0.719   2.205
 3084SOL    HW2 9339   3.869   0.683   2.348
 3085SOL     OW 9340   2.633   2.005   1.837
 3085SOL    HW1 9341   2.564   2.055   1.793
 3085SOL    HW2 9342   2.664   1.943   1.771
 3086SOL     OW 9343   4.808   0.355   0.552
 3086SOL    HW1 9344   4.806   0.307   0.470
 3086SOL    HW2 9345   4.851   0.295   0.613
 3087SOL     OW 9346   2.671   0.971   0.111
 3087SOL    HW1 9347   2.653   1.054   0.153
 3087SOL    HW2 9348   2.611   0.967   0.037
 3088SOL     OW 9349   4.469   2.193   1.244
 3088SOL    HW1 9350   4.423   2.185   1.328
 3088SOL    HW2 9351   4.403   2.171   1.178
 3089SOL     OW 9352   3.685   1.083   0.241
 3089SOL    HW1 9353   3.764   1.138   0.248
 3089SOL    HW2 9354   3.624   1.135   0.189
 3090SOL     OW 9355   4.937   1.577   2.152
 3090SOL    HW1 9356   5.029   1.562   2.173
 3090SOL    HW2 9357   4.909   1.498   2.106
 3091SOL     OW 9358   2.533   0.011   1.002
 3091SOL    HW1 9359   2.539  -0.083   0.981
 3091SOL    HW2 9360   2.441   0.032   0.987
 3092SOL     OW 9361   3.241   1.780   1.052
 3092SOL    HW1 9362   3.336   1.774   1.066
 3092SOL    HW2 9363   3.208   1.821   1.132
 3093SOL     OW 9364   4.456   1.586   1.203
 3093SOL    HW1 9365   4.471   1.512   1.262
 3093SOL    HW2 9366   4.361   1.593   1.197
 3094SOL     OW 9367   4.641   0.228   2.094
 3094SOL    HW1 9368   4.565   0.192   2.048
 3094SOL    HW2 9369   4.688   0.152   2.128
 3095SOL     OW 9370   4.584   0.184   1.475
 3095SOL    HW1 9371   4.549   0.107   1.429
 3095SOL    HW2 9372   4.675   0.190   1.446
 3096SOL     OW 9373   3.362   2.121   1.001
 3096SOL    HW1 9374   3.271   2.130   1.029
 3096SOL    HW2 9375   3.361   2.145   0.909
 3097SOL     OW 9376   4.645   0.351   1.027
 3097SOL    HW1 9377   4.567   0.316   1.070
 3097SOL    HW2 9378   4.617   0.437   0.994
 3098SOL     OW 9379   4.932   1.980   2.130
 3098SOL    HW1 9380   4.921   2.062   2.179
 3098SOL    HW2 9381   4.924   2.005   2.038
 3099SOL     OW 9382   3.383   0.373   1.488
 3099SOL    HW1 9383   3.343   0.456   1.465
 3099SOL    HW2 9384   3.448   0.357   1.419
 3100SOL     OW 9385   3.422   0.883   0.950
 3100SOL    HW1 9386   3.418   0.796   0.991
 3100SOL    HW2 9387   3.467   0.868   0.867
 3101SOL     OW 9388   4.830   1.019   2.144
 3101SOL    HW1 9389   4.838   0.977   2.058
 3101SOL    HW2 9390   4.740   1.050   2.148
 3102SOL     OW 9391   4.129   2.385   1.050
 3102SOL    HW1 9392   4.106   2.429   1.132
 3102SOL    HW2 9393   4.045   2.375   1.004
 3103SOL     OW 9394   3.217   1.101   1.030
 3103SOL    HW1 9395   3.273   1.037   0.985
 3103SOL    HW2 9396   3.251   1.104   1.119
 3104SOL     OW 9397   3.062   2.222   1.060
 3104SOL    HW1 9398   3.057   2.270   0.977
 3104SOL    HW2 9399   2.978   2.175   1.065
 3105SOL     OW 9400   3.640   0.661   2.076
 3105SOL    HW1 9401   3.597   0.737   2.114
 3105SOL    HW2 9402   3.588   0.640   1.999
 3106SOL     OW 9403   3.154   0.569   0.236
 3106SOL    HW1 9404   3.158   0.595   0.328
 3106SOL    HW2 9405   3.070   0.524   0.227
 3107SOL     OW 9406   3.711   2.369   1.347
 3107SOL    HW1 9407   3.772   2.419   1.402
 3107SOL    HW2 9408   3.650   2.328   1.410
 3108SOL     OW 9409   4.145   0.668   1.743
 3108SOL    HW1 9410   4.052   0.678   1.766
 3108SOL    HW2 9411   4.184   0.626   1.819
 3109SOL     OW 9412   3.815   2.146   0.971
 3109SOL    HW1 9413   3.877   2.109   0.907
 3109SOL    HW2 9414   3.821   2.240   0.958
 3110SOL     OW 9415   2.760   2.418   2.258
 3110SOL    HW1 9416   2.684   2.412   2.200
 3110SOL    HW2 9417   2.785   2.327   2.273
 3111SOL     OW 9418   3.532   1.108   0.856
 3111SOL    HW1 9419   3.627   1.118   0.851
 3111SOL    HW2 9420   3.519   1.034   0.914
 3112SOL     OW 9421   4.530   0.879   0.430
 3112SOL    HW1 9422   4.445   0.860   0.390
 3112SOL    HW2 9423   4.582   0.800   0.413
 3113SOL     OW 9424   4.173   1.817   1.225
 3113SOL    HW1 9425   4.178   1.722   1.223
 3113SOL    HW2 9426   4.083   1.836   1.251
 3114SOL     OW 9427   4.295   0.288   1.454
 3114SOL    HW1 9428   4.353   0.260   1.525
 3114SOL    HW2 9429   4.210   0.301   1.496
 3115SOL     OW 9430   4.313   0.837   1.584
 3115SOL    HW1 9431   4.292   0.831   1.491
 3115SOL    HW2 9432   4.246   0.784   1.627
 3116SOL     OW 9433   2.913   0.745   2.379
 3116SOL    HW1 9434   2.844   0.776   2.320
 3116SOL    HW2 9435   2.890   0.654   2.397
 3117SOL     OW 9436   3.495   0.409   0.877
 3117SOL    HW1 9437   3.434   0.365   0.936
 3117SOL    HW2 9438   3.476   0.372   0.791
 3118SOL     OW 9439   2.709   1.063   1.244
 3118SOL    HW1 9440   2.679   0.973   1.260
 3118SOL    HW2 9441   2.712   1.103   1.331
 3119SOL     OW 9442   4.457   2.397   1.633
 3119SOL    HW1 9443   4.535   2.416   1.685
 3119SOL    HW2 9444   4.388   2.449   1.674
 3120SOL     OW 9445   4.724   0.590   0.881
 3120SOL    HW1 9446   4.817   0.589   0.858
 3120SOL    HW2 9447   4.696   0.680   0.862
 3121SOL     OW 9448   4.879   0.352   2.443
 3121SOL    HW1 9449   4.905   0.261   2.459
 3121SOL    HW2 9450   4.923   0.376   2.361
 3122SOL     OW 9451   3.401   0.696   0.284
 3122SOL    HW1 9452   3.338   0.769   0.287
 3122SOL    HW2 9453   3.365   0.636   0.219
 3123SOL     OW 9454   4.282   1.733   2.414
 3123SOL    HW1 9455   4.318   1.650   2.445
 3123SOL    HW2 9456   4.339   1.758   2.342
 3124SOL     OW 9457   4.711   1.117   1.720
 3124SOL    HW1 9458   4.769   1.045   1.745
 3124SOL    HW2 9459   4.623   1.079   1.725
 3125SOL     OW 9460   4.535   0.660   2.137
 3125SOL    HW1 9461   4.535   0.597   2.209
 3125SOL    HW2 9462   4.603   0.629   2.077
 3126SOL     OW 9463   3.178   0.704   1.746
 3126SOL    HW1 9464   3.235   0.659   1.809
 3126SOL    HW2 9465   3.187   0.797   1.768
 3127SOL     OW 9466   4.296   2.211   1.914
 3127SOL    HW1 9467   4.385   2.181   1.932
 3127SOL    HW2 9468   4.299   2.245   1.825
 3128SOL     OW 9469   4.778   0.863   0.832
 3128SOL    HW1 9470   4.832   0.842   0.756
 3128SOL    HW2 9471   4.688   0.853   0.802
 3129SOL     OW 9472   4.219   0.008   1.784
 3129SOL    HW1 9473   4.184  -0.034   1.862
 3129SOL    HW2 9474   4.147   0.060   1.750
 3130SOL     OW 9475   4.848   0.149   1.378
 3130SOL    HW1 9476   4.942   0.161   1.387
 3130SOL    HW2 9477   4.838   0.072   1.323
 3131SOL     OW 9478   3.742   1.886   1.020
 3131SOL    HW1 9479   3.799   1.834   1.077
 3131SOL    HW2 9480   3.770   1.976   1.034
 3132SOL     OW 9481   4.655   2.006   1.158
 3132SOL    HW1 9482   4.604   2.066   1.213
 3132SOL    HW2 9483   4.589   1.961   1.104
 3133SOL     OW 9484   4.734   0.013   2.218
 3133SOL    HW1 9485   4.807   0.056   2.262
 3133SOL    HW2 9486   4.703  -0.053   2.280
 3134SOL     OW 9487   4.619   0.400   2.331
 3134SOL    HW1 9488   4.701   0.372   2.371
 3134SOL    HW2 9489   4.618   0.356   2.246
 3135SOL     OW 9490   3.598   1.638   1.147
 3135SOL    HW1 9491   3.548   1.717   1.169
 3135SOL    HW2 9492   3.687   1.657   1.178
 3136SOL     OW 9493   3.952   0.608   0.526
 3136SOL    HW1 9494   4.035   0.655   0.522
 3136SOL    HW2 9495   3.927   0.613   0.618
 3137SOL     OW 9496   2.846   1.788   0.199
 3137SOL    HW1 9497   2.857   1.729   0.124
 3137SOL    HW2 9498   2.841   1.731   0.275
 3138SOL     OW 9499   2.498   2.203   1.425
 3138SOL    HW1 9500   2.454   2.121   1.403
 3138SOL    HW2 9501   2.574   2.205   1.367
 3139SOL     OW 9502   4.595   0.450   0.678
 3139SOL    HW1 9503   4.665   0.416   0.624
 3139SOL    HW2 9504   4.639   0.492   0.752
 3140SOL     OW 9505   3.112   1.922   1.673
 3140SOL    HW1 9506   3.084   2.001   1.626
 3140SOL    HW2 9507   3.178   1.953   1.736
 3141SOL     OW 9508   4.690   2.307   2.421
 3141SOL    HW1 9509   4.749   2.322   2.495
 3141SOL    HW2 9510   4.616   2.260   2.459
 3142SOL     OW 9511   3.582   1.118   2.053
 3142SOL    HW1 9512   3.570   1.125   1.958
 3142SOL    HW2 9513   3.536   1.037   2.077
 3143SOL     OW 9514   2.543   2.156   0.046
 3143SOL    HW1 9515   2.488   2.219   0.092
 3143SOL    HW2 9516   2.624   2.154   0.097
 3144SOL     OW 9517   3.580   1.957   2.160
 3144SOL    HW1 9518   3.573   1.962   2.065
 3144SOL    HW2 9519   3.548   1.870   2.182
 3145SOL     OW 9520   3.823   1.583   3.375
 3145SOL    HW1 9521   3.886   1.553   3.440
 3145SOL    HW2 9522   3.774   1.652   3.420
 3146SOL     OW 9523   4.497   1.314   4.152
 3146SOL    HW1 9524   4.553   1.287   4.079
 3146SOL    HW2 9525   4.545   1.288   4.230
 3147SOL     OW 9526   4.715   0.646   4.149
 3147SOL    HW1 9527   4.645   0.589   4.182
 3147SOL    HW2 9528   4.768   0.588   4.094
 3148SOL     OW 9529   3.132   2.336   2.864
 3148SOL    HW1 9530   3.140   2.427   2.835
 3148SOL    HW2 9531   3.196   2.289   2.811
 3149SOL     OW 9532   4.438   1.302   3.767
 3149SOL    HW1 9533   4.377   1.232   3.788
 3149SOL    HW2 9534   4.508   1.294   3.832
 3150SOL     OW 9535   4.358   1.514   4.014
 3150SOL    HW1 9536   4.407   1.441   4.050
 3150SOL    HW2 9537   4.301   1.543   4.086
 3151SOL     OW 9538   2.836   2.234   4.467
 3151SOL    HW1 9539   2.849   2.173   4.540
 3151SOL    HW2 9540   2.779   2.187   4.407
 3152SOL     OW 9541   2.808   2.468   4.323
 3152SOL    HW1 9542   2.714   2.479   4.310
 3152SOL    HW2 9543   2.816   2.384   4.370
 3153SOL     OW 9544   4.286   1.729   4.340
 3153SOL    HW1 9545   4.232   1.701   4.267
 3153SOL    HW2 9546   4.243   1.808   4.373
 3154SOL     OW 9547   3.884   1.675   3.675
 3154SOL    HW1 9548   3.931   1.687   3.758
 3154SOL    HW2 9549   3.898   1.583   3.653
 3155SOL     OW 9550   4.247   2.124   3.097
 3155SOL    HW1 9551   4.290   2.209   3.099
 3155SOL    HW2 9552   4.318   2.061   3.110
 3156SOL     OW 9553   2.874   0.934   3.264
 3156SOL    HW1 9554   2.942   0.985   3.221
 3156SOL    HW2 9555   2.865   0.976   3.350
 3157SOL     OW 9556   4.200   0.723   2.972
 3157SOL    HW1 9557   4.196   0.811   3.009
 3157SOL    HW2 9558   4.214   0.737   2.879
 3158SOL     OW 9559   4.102   0.275   3.606
 3158SOL    HW1 9560   4.119   0.365   3.636
 3158SOL    HW2 9561   4.188   0.244   3.577
 3159SOL     OW 9562   4.376   0.021   3.546
 3159SOL    HW1 9563   4.303  -0.026   3.586
 3159SOL    HW2 9564   4.441  -0.046   3.528
 3160SOL     OW 9565   4.103   0.022   3.810
 3160SOL    HW1 9566   4.146   0.107   3.820
 3160SOL    HW2 9567   4.030   0.025   3.873
 3161SOL     OW 9568   3.098   1.975   2.639
 3161SOL    HW1 9569   3.006   1.994   2.658
 3161SOL    HW2 9570   3.097   1.884   2.610
 3162SOL     OW 9571   4.817   1.260   3.379
 3162SOL    HW1 9572   4.883   1.197   3.350
 3162SOL    HW2 9573   4.868   1.334   3.411
 3163SOL     OW 9574   4.291   1.252   4.762
 3163SOL    HW1 9575   4.321   1.162   4.775
 3163SOL    HW2 9576   4.363   1.306   4.794
 3164SOL     OW 9577   4.714   0.648   2.887
 3164SOL    HW1 9578   4.727   0.580   2.953
 3164SOL    HW2 9579   4.791   0.641   2.831
 3165SOL     OW 9580   3.190   1.503   3.159
 3165SOL    HW1 9581   3.160   1.540   3.242
 3165SOL    HW2 9582   3.285   1.498   3.168
 3166SOL     OW 9583   4.469   1.963   3.152
 3166SOL    HW1 9584   4.565   1.965   3.149
 3166SOL    HW2 9585   4.445   1.883   3.106
 3167SOL     OW 9586   2.966   1.755   3.896
 3167SOL    HW1 9587   2.888   1.729   3.847
 3167SOL    HW2 9588   2.932   1.801   3.973
 3168SOL     OW 9589   3.051   0.727   3.265
 3168SOL    HW1 9590   3.104   0.744   3.343
 3168SOL    HW2 9591   2.992   0.802   3.260
 3169SOL     OW 9592   3.417   2.433   3.922
 3169SOL    HW1 9593   3.434   2.371   3.851
 3169SOL    HW2 9594   3.345   2.488   3.890
 3170SOL     OW 9595   2.601   1.833   2.944
 3170SOL    HW1 9596   2.537   1.769   2.913
 3170SOL    HW2 9597   2.685   1.790   2.931
 3171SOL     OW 9598   3.627   2.142   3.228
 3171SOL    HW1 9599   3.597   2.215   3.281
 3171SOL    HW2 9600   3.682   2.090   3.288
 3172SOL     OW 9601   2.621   1.400   3.220
 3172SOL    HW1 9602   2.560   1.440   3.283
 3172SOL    HW2 9603   2.564   1.353   3.159
 3173SOL     OW 9604   3.468   1.838   2.508
 3173SOL    HW1 9605   3.489   1.766   2.568
 3173SOL    HW2 9606   3.452   1.795   2.424
 3174SOL     OW 9607   4.512   1.067   4.607
 3174SOL    HW1 9608   4.463   1.056   4.688
 3174SOL    HW2 9609   4.481   0.998   4.550
 3175SOL     OW 9610   4.448   0.982   4.278
 3175SOL    HW1 9611   4.411   0.927   4.209
 3175SOL    HW2 9612   4.422   0.939   4.360
 3176SOL     OW 9613   4.756   1.906   3.057
 3176SOL    HW1 9614   4.836   1.940   3.097
 3176SOL    HW2 9615   4.777   1.816   3.032
 3177SOL     OW 9616   4.333   0.308   4.291
 3177SOL    HW1 9617   4.244   0.274   4.288
 3177SOL    HW2 9618   4.370   0.271   4.371
 3178SOL     OW 9619   3.749   2.367   4.365
 3178SOL    HW1 9620   3.687   2.304   4.328
 3178SOL    HW2 9621   3.814   2.314   4.411
 3179SOL     OW 9622   4.260   0.930   3.634
 3179SOL    HW1 9623   4.233   1.010   3.678
 3179SOL    HW2 9624   4.355   0.927   3.647
 3180SOL     OW 9625   4.059   0.761   3.546
 3180SOL    HW1 9626   4.112   0.824   3.596
 3180SOL    HW2 9627   3.995   0.816   3.499
 3181SOL     OW 9628   3.365   1.008   4.367
 3181SOL    HW1 9629   3.306   0.979   4.436
 3181SOL    HW2 9630   3.352   1.103   4.361
 3182SOL     OW 9631   2.835   0.135   4.562
 3182SOL    HW1 9632   2.831   0.078   4.639
 3182SOL    HW2 9633   2.853   0.076   4.489
 3183SOL     OW 9634   3.778   1.519   4.736
 3183SOL    HW1 9635   3.814   1.430   4.727
 3183SOL    HW2 9636   3.830   1.572   4.676
 3184SOL     OW 9637   3.708   2.270   2.824
 3184SOL    HW1 9638   3.671   2.356   2.842
 3184SOL    HW2 9639   3.681   2.250   2.734
 3185SOL     OW 9640   3.312   0.446   2.986
 3185SOL    HW1 9641   3.350   0.454   2.899
 3185SOL    HW2 9642   3.268   0.529   3.001
 3186SOL     OW 9643   2.923   1.450   3.069
 3186SOL    HW1 9644   3.001   1.464   3.122
 3186SOL    HW2 9645   2.894   1.361   3.091
 3187SOL     OW 9646   4.942   0.186   3.197
 3187SOL    HW1 9647   4.958   0.100   3.158
 3187SOL    HW2 9648   5.024   0.234   3.183
 3188SOL     OW 9649   3.995   2.028   3.289
 3188SOL    HW1 9650   4.023   1.939   3.312
 3188SOL    HW2 9651   4.072   2.068   3.249
 3189SOL     OW 9652   2.753   1.158   3.050
 3189SOL    HW1 9653   2.667   1.186   3.018
 3189SOL    HW2 9654   2.764   1.069   3.016
 3190SOL     OW 9655   4.424   1.511   2.585
 3190SOL    HW1 9656   4.418   1.455   2.662
 3190SOL    HW2 9657   4.461   1.455   2.517
 3191SOL     OW 9658   3.344   1.911   2.833
 3191SOL    HW1 9659   3.410   1.871   2.777
 3191SOL    HW2 9660   3.394   1.964   2.896
 3192SOL     OW 9661   2.852   2.325   2.773
 3192SOL    HW1 9662   2.934   2.276   2.778
 3192SOL    HW2 9663   2.835   2.332   2.679
 3193SOL     OW 9664   4.638   1.612   2.867
 3193SOL    HW1 9665   4.603   1.524   2.849
 3193SOL    HW2 9666   4.722   1.614   2.822
 3194SOL     OW 9667   4.040   0.989   4.395
 3194SOL    HW1 9668   4.124   1.030   4.411
 3194SOL    HW2 9669   4.042   0.909   4.449
 3195SOL     OW 9670   2.550   0.489   4.279
 3195SOL    HW1 9671   2.566   0.462   4.189
 3195SOL    HW2 9672   2.465   0.451   4.301
 3196SOL     OW 9673   3.935   0.167   4.413
 3196SOL    HW1 9674   3.938   0.174   4.509
 3196SOL    HW2 9675   3.860   0.110   4.396
 3197SOL     OW 9676   3.764   1.443   3.014
 3197SOL    HW1 9677   3.722   1.440   3.100
 3197SOL    HW2 9678   3.826   1.516   3.020
 3198SOL     OW 9679   4.397   0.443   2.981
 3198SOL    HW1 9680   4.329   0.436   3.048
 3198SOL    HW2 9681   4.479   0.439   3.030
 3199SOL     OW 9682   2.652   1.775   4.478
 3199SOL    HW1 9683   2.575   1.806   4.525
 3199SOL    HW2 9684   2.689   1.854   4.438
 3200SOL     OW 9685   4.749   0.994   3.556
 3200SOL    HW1 9686   4.737   0.961   3.467
 3200SOL    HW2 9687   4.830   1.046   3.552
 3201SOL     OW 9688   3.124   1.596   2.698
 3201SOL    HW1 9689   3.097   1.632   2.783
 3201SOL    HW2 9690   3.219   1.600   2.699
 3202SOL     OW 9691   4.880   0.903   4.288
 3202SOL    HW1 9692   4.901   0.865   4.203
 3202SOL    HW2 9693   4.866   0.828   4.346
 3203SOL     OW 9694   4.516   0.865   3.229
 3203SOL    HW1 9695   4.438   0.812   3.248
 3203SOL    HW2 9696   4.511   0.882   3.135
 3204SOL     OW 9697   3.562   0.106   3.645
 3204SOL    HW1 9698   3.646   0.118   3.601
 3204SOL    HW2 9699   3.575   0.033   3.704
 3205SOL     OW 9700   4.138   0.164   3.087
 3205SOL    HW1 9701   4.147   0.100   3.158
 3205SOL    HW2 9702   4.205   0.138   3.023
 3206SOL     OW 9703   2.519   1.998   3.119
 3206SOL    HW1 9704   2.549   1.951   3.042
 3206SOL    HW2 9705   2.594   1.997   3.179
 3207SOL     OW 9706   3.422   2.428   3.066
 3207SOL    HW1 9707   3.448   2.444   2.975
 3207SOL    HW2 9708   3.502   2.441   3.116
 3208SOL     OW 9709   3.694   1.453   2.509
 3208SOL    HW1 9710   3.666   1.369   2.473
 3208SOL    HW2 9711   3.731   1.500   2.435
 3209SOL     OW 9712   4.275   1.149   4.451
 3209SOL    HW1 9713   4.215   1.212   4.493
 3209SOL    HW2 9714   4.361   1.191   4.457
 3210SOL     OW 9715   4.136   1.320   2.516
 3210SOL    HW1 9716   4.070   1.254   2.496
 3210SOL    HW2 9717   4.163   1.354   2.431
 3211SOL     OW 9718   3.040   0.493   4.134
 3211SOL    HW1 9719   3.054   0.582   4.168
 3211SOL    HW2 9720   3.084   0.436   4.197
 3212SOL     OW 9721   3.769   0.299   3.375
 3212SOL    HW1 9722   3.787   0.275   3.284
 3212SOL    HW2 9723   3.694   0.358   3.370
 3213SOL     OW 9724   2.901   1.828   4.328
 3213SOL    HW1 9725   2.988   1.838   4.290
 3213SOL    HW2 9726   2.913   1.764   4.398
 3214SOL     OW 9727   2.733   0.249   4.236
 3214SOL    HW1 9728   2.758   0.242   4.329
 3214SOL    HW2 9729   2.741   0.342   4.216
 3215SOL     OW 9730   3.043   1.505   4.040
 3215SOL    HW1 9731   3.012   1.576   3.985
 3215SOL    HW2 9732   3.110   1.544   4.095
 3216SOL     OW 9733   3.136   0.336   4.341
 3216SOL    HW1 9734   3.093   0.335   4.427
 3216SOL    HW2 9735   3.133   0.245   4.312
 3217SOL     OW 9736   4.217   0.517   4.475
 3217SOL    HW1 9737   4.213   0.489   4.566
 3217SOL    HW2 9738   4.274   0.453   4.432
 3218SOL     OW 9739   2.859   1.125   4.406
 3218SOL    HW1 9740   2.801   1.090   4.338
 3218SOL    HW2 9741   2.928   1.059   4.414
 3219SOL     OW 9742   3.547   1.789   4.133
 3219SOL    HW1 9743   3.568   1.839   4.054
 3219SOL    HW2 9744   3.545   1.698   4.104
 3220SOL     OW 9745   4.150   2.418   4.557
 3220SOL    HW1 9746   4.073   2.401   4.611
 3220SOL    HW2 9747   4.195   2.334   4.553
 3221SOL     OW 9748   2.975   0.277   3.974
 3221SOL    HW1 9749   2.996   0.219   4.046
 3221SOL    HW2 9750   2.997   0.365   4.006
 3222SOL     OW 9751   3.336   1.939   4.333
 3222SOL    HW1 9752   3.329   1.861   4.388
 3222SOL    HW2 9753   3.368   1.907   4.249
 3223SOL     OW 9754   3.905   2.466   3.995
 3223SOL    HW1 9755   3.896   2.546   4.047
 3223SOL    HW2 9756   3.884   2.395   4.056
 3224SOL     OW 9757   3.230   0.603   3.921
 3224SOL    HW1 9758   3.211   0.682   3.871
 3224SOL    HW2 9759   3.156   0.595   3.983
 3225SOL     OW 9760   3.327   2.243   3.251
 3225SOL    HW1 9761   3.364   2.269   3.166
 3225SOL    HW2 9762   3.238   2.277   3.250
 3226SOL     OW 9763   4.853   0.730   4.483
 3226SOL    HW1 9764   4.940   0.693   4.497
 3226SOL    HW2 9765   4.802   0.659   4.444
 3227SOL     OW 9766   4.360   2.188   3.971
 3227SOL    HW1 9767   4.382   2.112   4.024
 3227SOL    HW2 9768   4.386   2.263   4.025
 3228SOL     OW 9769   3.116   0.257   3.007
 3228SOL    HW1 9770   3.193   0.312   3.016
 3228SOL    HW2 9771   3.098   0.226   3.095
 3229SOL     OW 9772   2.555   0.419   4.677
 3229SOL    HW1 9773   2.548   0.334   4.635
 3229SOL    HW2 9774   2.581   0.479   4.606
 3230SOL     OW 9775   3.549   2.484   2.823
 3230SOL    HW1 9776   3.599   2.565   2.824
 3230SOL    HW2 9777   3.509   2.482   2.736
 3231SOL     OW 9778   4.831   0.502   2.652
 3231SOL    HW1 9779   4.864   0.457   2.575
 3231SOL    HW2 9780   4.864   0.451   2.726
 3232SOL     OW 9781   4.706   2.179   2.968
 3232SOL    HW1 9782   4.790   2.184   2.923
 3232SOL    HW2 9783   4.701   2.089   3.000
 3233SOL     OW 9784   3.885   1.258   4.388
 3233SOL    HW1 9785   3.922   1.307   4.461
 3233SOL    HW2 9786   3.902   1.166   4.410
 3234SOL     OW 9787   4.827   0.697   3.852
 3234SOL    HW1 9788   4.862   0.610   3.835
 3234SOL    HW2 9789   4.744   0.700   3.805
 3235SOL     OW 9790   3.819   0.076   2.674
 3235SOL    HW1 9791   3.851   0.082   2.763
 3235SOL    HW2 9792   3.876   0.011   2.632
 3236SOL     OW 9793   3.096   1.018   4.247
 3236SOL    HW1 9794   3.158   1.065   4.191
 3236SOL    HW2 9795   3.011   1.031   4.204
 3237SOL     OW 9796   4.108   1.249   2.850
 3237SOL    HW1 9797   4.025   1.292   2.830
 3237SOL    HW2 9798   4.171   1.289   2.790
 3238SOL     OW 9799   2.913   0.555   4.430
 3238SOL    HW1 9800   2.915   0.536   4.336
 3238SOL    HW2 9801   2.943   0.474   4.472
 3239SOL     OW 9802   4.588   0.841   4.024
 3239SOL    HW1 9803   4.496   0.839   4.049
 3239SOL    HW2 9804   4.630   0.776   4.081
 3240SOL     OW 9805   3.598   1.109   3.947
 3240SOL    HW1 9806   3.677   1.161   3.962
 3240SOL    HW2 9807   3.620   1.022   3.980
 3241SOL     OW 9808   4.820   1.300   3.725
 3241SOL    HW1 9809   4.911   1.318   3.704
 3241SOL    HW2 9810   4.773   1.380   3.703
 3242SOL     OW 9811   4.929   1.653   3.939
 3242SOL    HW1 9812   4.860   1.645   3.873
 3242SOL    HW2 9813   4.881   1.676   4.019
 3243SOL     OW 9814   4.572   1.733   4.337
 3243SOL    HW1 9815   4.599   1.671   4.404
 3243SOL    HW2 9816   4.476   1.726   4.334
 3244SOL     OW 9817   3.389   1.505   2.519
 3244SOL    HW1 9818   3.429   1.426   2.556
 3244SOL    HW2 9819   3.446   1.527   2.445
 3245SOL     OW 9820   4.414   0.271   3.643
 3245SOL    HW1 9821   4.397   0.290   3.736
 3245SOL    HW2 9822   4.418   0.175   3.639
 3246SOL     OW 9823   4.419   1.862   3.483
 3246SOL    HW1 9824   4.391   1.889   3.396
 3246SOL    HW2 9825   4.387   1.773   3.493
 3247SOL     OW 9826   3.101   0.360   3.624
 3247SOL    HW1 9827   3.063   0.272   3.622
 3247SOL    HW2 9828   3.028   0.417   3.647
 3248SOL     OW 9829   2.665   2.202   3.684
 3248SOL    HW1 9830   2.599   2.225   3.619
 3248SOL    HW2 9831   2.722   2.139   3.641
 3249SOL     OW 9832   2.998   0.473   3.215
 3249SOL    HW1 9833   3.074   0.415   3.213
 3249SOL    HW2 9834   3.026   0.547   3.268
 3250SOL     OW 9835   4.904   2.181   4.201
 3250SOL    HW1 9836   4.810   2.192   4.193
 3250SOL    HW2 9837   4.939   2.200   4.114
 3251SOL     OW 9838   3.525   1.167   2.508
 3251SOL    HW1 9839   3.536   1.157   2.413
 3251SOL    HW2 9840   3.433   1.146   2.524
 3252SOL     OW 9841   4.548   0.867   3.692
 3252SOL    HW1 9842   4.617   0.920   3.652
 3252SOL    HW2 9843   4.573   0.862   3.785
 3253SOL     OW 9844   4.860   2.316   2.702
 3253SOL    HW1 9845   4.807   2.380   2.750
 3253SOL    HW2 9846   4.926   2.287   2.764
 3254SOL     OW 9847   4.210   0.022   2.490
 3254SOL    HW1 9848   4.118  -0.001   2.485
 3254SOL    HW2 9849   4.242  -0.024   2.568
 3255SOL     OW 9850   4.243   0.248   2.639
 3255SOL    HW1 9851   4.307   0.270   2.707
 3255SOL    HW2 9852   4.266   0.160   2.611
 3256SOL     OW 9853   4.432   1.740   2.753
 3256SOL    HW1 9854   4.500   1.701   2.809
 3256SOL    HW2 9855   4.403   1.668   2.697
 3257SOL     OW 9856   3.088   2.292   3.830
 3257SOL    HW1 9857   3.114   2.279   3.738
 3257SOL    HW2 9858   3.000   2.330   3.824
 3258SOL     OW 9859   3.661   0.613   3.343
 3258SOL    HW1 9860   3.639   0.646   3.256
 3258SOL    HW2 9861   3.606   0.535   3.354
 3259SOL     OW 9862   2.826   1.590   2.507
 3259SOL    HW1 9863   2.735   1.611   2.485
 3259SOL    HW2 9864   2.864   1.559   2.425
 3260SOL     OW 9865   3.806   0.907   3.888
 3260SOL    HW1 9866   3.853   0.836   3.932
 3260SOL    HW2 9867   3.855   0.986   3.912
 3261SOL     OW 9868   4.564   0.468   2.590
 3261SOL    HW1 9869   4.576   0.452   2.496
 3261SOL    HW2 9870   4.647   0.506   2.618
 3262SOL     OW 9871   3.076   0.968   4.877
 3262SOL    HW1 9872   2.987   1.002   4.864
 3262SOL    HW2 9873   3.065   0.874   4.889
 3263SOL     OW 9874   2.575   1.401   3.944
 3263SOL    HW1 9875   2.509   1.380   4.010
 3263SOL    HW2 9876   2.550   1.488   3.912
 3264SOL     OW 9877   2.539   2.225   2.891
 3264SOL    HW1 9878   2.634   2.234   2.894
 3264SOL    HW2 9879   2.517   2.178   2.972
 3265SOL     OW 9880   2.796   0.719   4.173
 3265SOL    HW1 9881   2.703   0.702   4.160
 3265SOL    HW2 9882   2.836   0.700   4.088
 3266SOL     OW 9883   4.497   0.482   3.881
 3266SOL    HW1 9884   4.506   0.476   3.786
 3266SOL    HW2 9885   4.447   0.404   3.905
 3267SOL     OW 9886   2.503   0.590   2.918
 3267SOL    HW1 9887   2.550   0.518   2.960
 3267SOL    HW2 9888   2.565   0.625   2.854
 3268SOL     OW 9889   2.540   0.885   3.474
 3268SOL    HW1 9890   2.462   0.836   3.447
 3268SOL    HW2 9891   2.534   0.967   3.425
 3269SOL     OW 9892   4.542   1.000   2.585
 3269SOL    HW1 9893   4.626   1.003   2.630
 3269SOL    HW2 9894   4.493   0.930   2.628
 3270SOL     OW 9895   2.992   1.020   2.845
 3270SOL    HW1 9896   2.949   1.103   2.823
 3270SOL    HW2 9897   2.937   0.953   2.804
 3271SOL     OW 9898   3.537   0.879   4.180
 3271SOL    HW1 9899   3.617   0.932   4.186
 3271SOL    HW2 9900   3.475   0.923   4.237
 3272SOL     OW 9901   2.828   0.986   4.150
 3272SOL    HW1 9902   2.755   1.033   4.111
 3272SOL    HW2 9903   2.834   0.905   4.100
 3273SOL     OW 9904   3.962   2.136   4.088
 3273SOL    HW1 9905   3.877   2.120   4.048
 3273SOL    HW2 9906   4.020   2.153   4.014
 3274SOL     OW 9907   2.639   0.098   3.887
 3274SOL    HW1 9908   2.652   0.093   3.792
 3274SOL    HW2 9909   2.715   0.146   3.919
 3275SOL     OW 9910   2.538   2.397   4.603
 3275SOL    HW1 9911   2.492   2.333   4.658
 3275SOL    HW2 9912   2.512   2.376   4.514
 3276SOL     OW 9913   2.756   0.868   4.658
 3276SOL    HW1 9914   2.781   0.960   4.673
 3276SOL    HW2 9915   2.780   0.851   4.567
 3277SOL     OW 9916   4.164   1.390   3.097
 3277SOL    HW1 9917   4.181   1.347   3.013
 3277SOL    HW2 9918   4.178   1.483   3.080
 3278SOL     OW 9919   3.463   1.314   4.081
 3278SOL    HW1 9920   3.520   1.350   4.148
 3278SOL    HW2 9921   3.504   1.232   4.055
 3279SOL     OW 9922   3.334   0.239   3.502
 3279SOL    HW1 9923   3.391   0.200   3.568
 3279SOL    HW2 9924   3.254   0.262   3.550
 3280SOL     OW 9925   4.814   0.989   3.963
 3280SOL    HW1 9926   4.735   0.957   4.007
 3280SOL    HW2 9927   4.825   0.931   3.888
 3281SOL     OW 9928   3.966   2.357   2.509
 3281SOL    HW1 9929   3.944   2.365   2.416
 3281SOL    HW2 9930   3.885   2.329   2.551
 3282SOL     OW 9931   4.572   1.271   4.433
 3282SOL    HW1 9932   4.620   1.206   4.382
 3282SOL    HW2 9933   4.552   1.227   4.516
 3283SOL     OW 9934   2.509   0.850   4.823
 3283SOL    HW1 9935   2.580   0.795   4.790
 3283SOL    HW2 9936   2.451   0.861   4.748
 3284SOL     OW 9937   3.182   0.681   3.508
 3284SOL    HW1 9938   3.239   0.605   3.495
 3284SOL    HW2 9939   3.208   0.717   3.593
 3285SOL     OW 9940   2.562   1.217   2.559
 3285SOL    HW1 9941   2.539   1.204   2.467
 3285SOL    HW2 9942   2.650   1.254   2.557
 3286SOL     OW 9943   4.679   0.519   4.448
 3286SOL    HW1 9944   4.639   0.513   4.361
 3286SOL    HW2 9945   4.664   0.433   4.487
 3287SOL     OW 9946   4.655   1.976   4.343
 3287SOL    HW1 9947   4.621   1.887   4.343
 3287SOL    HW2 9948   4.701   1.985   4.259
 3288SOL     OW 9949   2.504   0.182   4.544
 3288SOL    HW1 9950   2.518   0.094   4.580
 3288SOL    HW2 9951   2.492   0.168   4.450
 3289SOL     OW 9952   4.712   1.417   3.138
 3289SOL    HW1 9953   4.739   1.384   3.224
 3289SOL    HW2 9954   4.622   1.448   3.151
 3290SOL     OW 9955   3.261   1.676   4.116
 3290SOL    HW1 9956   3.325   1.671   4.187
 3290SOL    HW2 9957   3.218   1.761   4.128
 3291SOL     OW 9958   4.098   2.193   3.834
 3291SOL    HW1 9959   4.114   2.281   3.801
 3291SOL    HW2 9960   4.183   2.164   3.869
 3292SOL     OW 9961   3.153   0.699   3.008
 3292SOL    HW1 9962   3.203   0.780   3.012
 3292SOL    HW2 9963   3.132   0.679   3.099
 3293SOL     OW 9964   4.693   2.452   2.906
 3293SOL    HW1 9965   4.636   2.509   2.957
 3293SOL    HW2 9966   4.652   2.366   2.912
 3294SOL     OW 9967   2.614   0.003   2.768
 3294SOL    HW1 9968   2.611   0.010   2.672
 3294SOL    HW2 9969   2.702  -0.032   2.786
 3295SOL     OW 9970   2.754   0.729   3.463
 3295SOL    HW1 9971   2.681   0.791   3.469
 3295SOL    HW2 9972   2.808   0.762   3.391
 3296SOL     OW 9973   3.603   0.335   2.876
 3296SOL    HW1 9974   3.679   0.339   2.819
 3296SOL    HW2 9975   3.528   0.332   2.816
 3297SOL     OW 9976   4.884   1.734   3.363
 3297SOL    HW1 9977   4.883   1.720   3.268
 3297SOL    HW2 9978   4.842   1.820   3.374
 3298SOL     OW 9979   2.853   2.045   3.592
 3298SOL    HW1 9980   2.902   1.972   3.553
 3298SOL    HW2 9981   2.859   2.029   3.686
 3299SOL     OW 9982   4.963   0.758   3.135
 3299SOL    HW1 9983   4.990   0.842   3.097
 3299SOL    HW2 9984   4.985   0.693   3.068
 3300SOL     OW 9985   2.825   2.110   4.715
 3300SOL    HW1 9986   2.762   2.049   4.754
 3300SOL    HW2 9987   2.903   2.102   4.770
 3301SOL     OW 9988   2.589   1.118   3.973
 3301SOL    HW1 9989   2.595   1.210   3.947
 3301SOL    HW2 9990   2.496   1.099   3.973
 3302SOL     OW 9991   3.313   2.147   4.797
 3302SOL    HW1 9992   3.376   2.083   4.831
 3302SOL    HW2 9993   3.328   2.147   4.702
 3303SOL     OW 9994   3.158   1.942   3.742
 3303SOL    HW1 9995   3.081   1.893   3.771
 3303SOL    HW2 9996   3.160   2.019   3.799
 3304SOL     OW 9997   2.607   0.471   3.549
 3304SOL    HW1 9998   2.578   0.513   3.469
 3304SOL    HW2 9999   2.528   0.458   3.600
 3305SOL     OW10000   2.566   2.216   3.421
 3305SOL    HW110001   2.494   2.169   3.379
 3305SOL    HW210002   2.645   2.187   3.375
 3306SOL     OW10003   3.968   1.102   3.748
 3306SOL    HW110004   3.945   1.022   3.702
 3306SOL    HW210005   3.886   1.152   3.751
 3307SOL     OW10006   2.935   1.290   2.827
 3307SOL    HW110007   3.026   1.295   2.855
 3307SOL    HW210008   2.895   1.370   2.863
 3308SOL     OW10009   4.879   1.646   3.101
 3308SOL    HW110010   4.960   1.603   3.074
 3308SOL    HW210011   4.816   1.574   3.112
 3309SOL     OW10012   3.558   2.170   4.269
 3309SOL    HW110013   3.515   2.256   4.270
 3309SOL    HW210014   3.489   2.109   4.293
 3310SOL     OW10015   3.899   0.581   4.335
 3310SOL    HW110016   3.850   0.506   4.302
 3310SOL    HW210017   3.851   0.610   4.412
 3311SOL     OW10018   4.291   0.733   3.263
 3311SOL    HW110019   4.234   0.748   3.339
 3311SOL    HW210020   4.257   0.653   3.224
 3312SOL     OW10021   2.856   1.135   4.835
 3312SOL    HW110022   2.783   1.170   4.784
 3312SOL    HW210023   2.850   1.180   4.919
 3313SOL     OW10024   2.529   0.111   4.136
 3313SOL    HW110025   2.601   0.169   4.158
 3313SOL    HW210026   2.545   0.086   4.045
 3314SOL     OW10027   3.417   0.630   3.640
 3314SOL    HW110028   3.418   0.688   3.716
 3314SOL    HW210029   3.503   0.587   3.642
 3315SOL     OW10030   3.046   0.412   4.932
 3315SOL    HW110031   2.984   0.470   4.976
 3315SOL    HW210032   3.002   0.388   4.851
 3316SOL     OW10033   3.114   2.464   4.048
 3316SOL    HW110034   3.145   2.522   3.979
 3316SOL    HW210035   3.114   2.377   4.008
 3317SOL     OW10036   3.793   1.239   3.381
 3317SOL    HW110037   3.885   1.254   3.358
 3317SOL    HW210038   3.744   1.276   3.307
 3318SOL     OW10039   3.775   1.765   2.931
 3318SOL    HW110040   3.793   1.852   2.897
 3318SOL    HW210041   3.693   1.739   2.889
 3319SOL     OW10042   4.012   0.976   4.122
 3319SOL    HW110043   4.033   0.973   4.215
 3319SOL    HW210044   4.021   0.885   4.092
 3320SOL     OW10045   2.728   1.356   4.248
 3320SOL    HW110046   2.694   1.269   4.268
 3320SOL    HW210047   2.671   1.388   4.178
 3321SOL     OW10048   3.534   1.552   3.961
 3321SOL    HW110049   3.496   1.464   3.952
 3321SOL    HW210050   3.473   1.609   3.914
 3322SOL     OW10051   3.951   1.695   3.118
 3322SOL    HW110052   3.900   1.718   3.040
 3322SOL    HW210053   3.885   1.665   3.180
 3323SOL     OW10054   4.172   1.971   4.395
 3323SOL    HW110055   4.188   2.065   4.408
 3323SOL    HW210056   4.125   1.944   4.474
 3324SOL     OW10057   4.051   1.269   3.330
 3324SOL    HW110058   4.124   1.262   3.392
 3324SOL    HW210059   4.088   1.317   3.255
 3325SOL     OW10060   3.126   1.766   2.930
 3325SOL    HW110061   3.191   1.824   2.890
 3325SOL    HW210062   3.146   1.768   3.024
 3326SOL     OW10063   3.090   1.066   3.117
 3326SOL    HW110064   3.063   1.051   3.027
 3326SOL    HW210065   3.185   1.055   3.116
 3327SOL     OW10066   3.268   2.204   4.516
 3327SOL    HW110067   3.256   2.120   4.472
 3327SOL    HW210068   3.184   2.222   4.557
 3328SOL     OW10069   3.624   2.271   2.581
 3328SOL    HW110070   3.632   2.192   2.528
 3328SOL    HW210071   3.565   2.328   2.531
 3329SOL     OW10072   2.904   0.703   2.921
 3329SOL    HW110073   2.986   0.700   2.972
 3329SOL    HW210074   2.932   0.724   2.832
 3330SOL     OW10075   3.477   2.118   2.958
 3330SOL    HW110076   3.507   2.106   3.048
 3330SOL    HW210077   3.531   2.190   2.925
 3331SOL     OW10078   4.750   0.119   3.417
 3331SOL    HW110079   4.715   0.205   3.440
 3331SOL    HW210080   4.821   0.137   3.355
 3332SOL     OW10081   3.169   0.100   2.782
 3332SOL    HW110082   3.212   0.135   2.705
 3332SOL    HW210083   3.158   0.175   2.840
 3333SOL     OW10084   3.167   1.547   4.440
 3333SOL    HW110085   3.120   1.464   4.431
 3333SOL    HW210086   3.123   1.592   4.512
 3334SOL     OW10087   4.890   0.775   2.588
 3334SOL    HW110088   4.876   0.683   2.569
 3334SOL    HW210089   4.924   0.812   2.506
 3335SOL     OW10090   4.333   0.090   2.923
 3335SOL    HW110091   4.388   0.011   2.925
 3335SOL    HW210092   4.389   0.157   2.885
 3336SOL     OW10093   4.199   2.426   3.268
 3336SOL    HW110094   4.260   2.491   3.302
 3336SOL    HW210095   4.176   2.373   3.345
 3337SOL     OW10096   2.503   0.553   3.310
 3337SOL    HW110097   2.533   0.625   3.255
 3337SOL    HW210098   2.518   0.474   3.257
 3338SOL     OW10099   4.243   1.688   3.024
 3338SOL    HW110100   4.232   1.738   2.943
 3338SOL    HW210101   4.163   1.706   3.074
 3339SOL     OW10102   4.737   0.139   2.655
 3339SOL    HW110103   4.806   0.164   2.716
 3339SOL    HW210104   4.670   0.099   2.710
 3340SOL     OW10105   3.894   0.689   4.042
 3340SOL    HW110106   3.868   0.621   4.103
 3340SOL    HW210107   3.892   0.647   3.956
 3341SOL     OW10108   3.877   1.727   4.200
 3341SOL    HW110109   3.891   1.814   4.239
 3341SOL    HW210110   3.824   1.745   4.122
 3342SOL     OW10111   4.373   0.199   3.299
 3342SOL    HW110112   4.329   0.284   3.309
 3342SOL    HW210113   4.394   0.172   3.388
 3343SOL     OW10114   4.566   1.124   3.331
 3343SOL    HW110115   4.547   1.032   3.315
 3343SOL    HW210116   4.660   1.132   3.320
 3344SOL     OW10117   2.616   0.489   4.038
 3344SOL    HW110118   2.677   0.544   3.990
 3344SOL    HW210119   2.584   0.425   3.974
 3345SOL     OW10120   3.112   1.609   3.389
 3345SOL    HW110121   3.176   1.664   3.434
 3345SOL    HW210122   3.093   1.538   3.451
 3346SOL     OW10123   3.890   0.568   3.790
 3346SOL    HW110124   3.972   0.567   3.740
 3346SOL    HW210125   3.821   0.557   3.724
 3347SOL     OW10126   3.594   1.648   2.684
 3347SOL    HW110127   3.622   1.572   2.634
 3347SOL    HW210128   3.534   1.613   2.750
 3348SOL     OW10129   2.692   1.241   4.603
 3348SOL    HW110130   2.746   1.308   4.645
 3348SOL    HW210131   2.732   1.230   4.516
 3349SOL     OW10132   4.198   2.273   2.656
 3349SOL    HW110133   4.244   2.196   2.691
 3349SOL    HW210134   4.116   2.239   2.622
 3350SOL     OW10135   3.218   0.147   3.819
 3350SOL    HW110136   3.204   0.235   3.854
 3350SOL    HW210137   3.147   0.134   3.756
 3351SOL     OW10138   3.900   0.391   2.850
 3351SOL    HW110139   3.924   0.471   2.895
 3351SOL    HW210140   3.965   0.382   2.780
 3352SOL     OW10141   2.537   2.392   4.317
 3352SOL    HW110142   2.510   2.457   4.252
 3352SOL    HW210143   2.497   2.310   4.288
 3353SOL     OW10144   3.861   1.174   4.043
 3353SOL    HW110145   3.932   1.113   4.063
 3353SOL    HW210146   3.904   1.248   4.001
 3354SOL     OW10147   4.523   1.728   3.993
 3354SOL    HW110148   4.471   1.648   3.987
 3354SOL    HW210149   4.502   1.777   3.914
 3355SOL     OW10150   4.142   0.560   3.686
 3355SOL    HW110151   4.222   0.585   3.732
 3355SOL    HW210152   4.114   0.638   3.640
 3356SOL     OW10153   4.100   0.862   2.630
 3356SOL    HW110154   4.073   0.903   2.548
 3356SOL    HW210155   4.074   0.924   2.698
 3357SOL     OW10156   3.168   1.897   3.231
 3357SOL    HW110157   3.263   1.891   3.227
 3357SOL    HW210158   3.145   1.963   3.166
 3358SOL     OW10159   3.879   2.389   3.357
 3358SOL    HW110160   3.787   2.414   3.360
 3358SOL    HW210161   3.908   2.415   3.270
 3359SOL     OW10162   3.041   2.397   4.529
 3359SOL    HW110163   3.059   2.444   4.447
 3359SOL    HW210164   2.964   2.344   4.511
 3360SOL     OW10165   4.803   2.327   3.191
 3360SOL    HW110166   4.767   2.354   3.107
 3360SOL    HW210167   4.731   2.281   3.234
 3361SOL     OW10168   4.748   1.643   4.152
 3361SOL    HW110169   4.688   1.675   4.084
 3361SOL    HW210170   4.709   1.673   4.234
 3362SOL     OW10171   2.505   1.832   3.612
 3362SOL    HW110172   2.470   1.862   3.528
 3362SOL    HW210173   2.574   1.771   3.589
 3363SOL     OW10174   3.961   1.962   3.759
 3363SOL    HW110175   4.023   2.031   3.782
 3363SOL    HW210176   3.876   2.005   3.760
 3364SOL     OW10177   3.217   0.230   2.535
 3364SOL    HW110178   3.139   0.284   2.520
 3364SOL    HW210179   3.248   0.208   2.447
 3365SOL     OW10180   2.836   2.375   3.811
 3365SOL    HW110181   2.819   2.460   3.771
 3365SOL    HW210182   2.785   2.313   3.759
 3366SOL     OW10183   3.580   0.342   3.776
 3366SOL    HW110184   3.563   0.258   3.733
 3366SOL    HW210185   3.624   0.395   3.710
 3367SOL     OW10186   4.676   1.268   3.951
 3367SOL    HW110187   4.725   1.267   3.868
 3367SOL    HW210188   4.723   1.207   4.007
 3368SOL     OW10189   2.900   0.825   4.434
 3368SOL    HW110190   2.914   0.731   4.437
 3368SOL    HW210191   2.867   0.841   4.345
 3369SOL     OW10192   2.747   1.304   3.426
 3369SOL    HW110193   2.838   1.275   3.421
 3369SOL    HW210194   2.729   1.342   3.339
 3370SOL     OW10195   4.257   2.095   3.611
 3370SOL    HW110196   4.180   2.082   3.556
 3370SOL    HW210197   4.288   2.006   3.630
 3371SOL     OW10198   3.519   0.309   3.132
 3371SOL    HW110199   3.582   0.325   3.062
 3371SOL    HW210200   3.435   0.337   3.097
 3372SOL     OW10201   2.776   0.395   4.847
 3372SOL    HW110202   2.699   0.422   4.799
 3372SOL    HW210203   2.787   0.302   4.826
 3373SOL     OW10204   3.852   2.159   4.534
 3373SOL    HW110205   3.778   2.159   4.595
 3373SOL    HW210206   3.928   2.139   4.588
 3374SOL     OW10207   3.627   1.908   4.368
 3374SOL    HW110208   3.715   1.933   4.341
 3374SOL    HW210209   3.593   1.857   4.294
 3375SOL     OW10210   3.931   0.608   3.303
 3375SOL    HW110211   3.836   0.616   3.316
 3375SOL    HW210212   3.969   0.640   3.385
 3376SOL     OW10213   4.132   1.604   4.161
 3376SOL    HW110214   4.056   1.657   4.138
 3376SOL    HW210215   4.097   1.516   4.173
 3377SOL     OW10216   4.699   2.438   4.229
 3377SOL    HW110217   4.695   2.419   4.322
 3377SOL    HW210218   4.733   2.527   4.223
 3378SOL     OW10219   4.228   0.171   4.730
 3378SOL    HW110220   4.225   0.127   4.815
 3378SOL    HW210221   4.170   0.118   4.674
 3379SOL     OW10222   2.816   2.018   3.856
 3379SOL    HW110223   2.795   1.964   3.933
 3379SOL    HW210224   2.777   2.103   3.876
 3380SOL     OW10225   2.543   1.668   2.498
 3380SOL    HW110226   2.582   1.751   2.471
 3380SOL    HW210227   2.449   1.681   2.488
 3381SOL     OW10228   3.155   0.225   3.270
 3381SOL    HW110229   3.127   0.133   3.274
 3381SOL    HW210230   3.218   0.234   3.342
 3382SOL     OW10231   4.562   0.049   3.136
 3382SOL    HW110232   4.486   0.105   3.154
 3382SOL    HW210233   4.619   0.062   3.212
 3383SOL     OW10234   3.133   1.345   2.535
 3383SOL    HW110235   3.108   1.414   2.597
 3383SOL    HW210236   3.120   1.385   2.449
 3384SOL     OW10237   4.801   0.383   4.081
 3384SOL    HW110238   4.862   0.310   4.081
 3384SOL    HW210239   4.717   0.343   4.059
 3385SOL     OW10240   2.585   1.129   4.296
 3385SOL    HW110241   2.512   1.091   4.344
 3385SOL    HW210242   2.599   1.068   4.223
 3386SOL     OW10243   4.076   0.586   2.613
 3386SOL    HW110244   4.080   0.682   2.612
 3386SOL    HW210245   4.157   0.559   2.656
 3387SOL     OW10246   2.974   2.402   3.338
 3387SOL    HW110247   3.029   2.402   3.259
 3387SOL    HW210248   2.894   2.447   3.311
 3388SOL     OW10249   4.861   1.986   3.806
 3388SOL    HW110250   4.927   1.954   3.744
 3388SOL    HW210251   4.781   1.990   3.754
 3389SOL     OW10252   4.024   0.216   4.175
 3389SOL    HW110253   4.030   0.304   4.140
 3389SOL    HW210254   3.967   0.224   4.252
 3390SOL     OW10255   4.641   0.623   3.631
 3390SOL    HW110256   4.599   0.707   3.618
 3390SOL    HW210257   4.700   0.613   3.556
 3391SOL     OW10258   3.339   1.117   3.044
 3391SOL    HW110259   3.382   1.039   3.010
 3391SOL    HW210260   3.405   1.158   3.101
 3392SOL     OW10261   4.962   1.658   2.777
 3392SOL    HW110262   4.930   1.568   2.786
 3392SOL    HW210263   5.003   1.661   2.690
 3393SOL     OW10264   2.973   1.870   3.430
 3393SOL    HW110265   3.024   1.896   3.353
 3393SOL    HW210266   3.027   1.802   3.471
 3394SOL     OW10267   2.720   1.961   3.304
 3394SOL    HW110268   2.782   1.969   3.377
 3394SOL    HW210269   2.706   1.867   3.294
 3395SOL     OW10270   3.179   1.261   4.061
 3395SOL    HW110271   3.136   1.347   4.068
 3395SOL    HW210272   3.272   1.282   4.051
 3396SOL     OW10273   3.633   1.450   3.245
 3396SOL    HW110274   3.552   1.461   3.296
 3396SOL    HW210275   3.702   1.481   3.304
 3397SOL     OW10276   3.729   0.498   3.588
 3397SOL    HW110277   3.732   0.412   3.545
 3397SOL    HW210278   3.728   0.561   3.515
 3398SOL     OW10279   3.116   2.093   3.045
 3398SOL    HW110280   3.190   2.142   3.009
 3398SOL    HW210281   3.045   2.156   3.050
 3399SOL     OW10282   4.334   0.827   2.728
 3399SOL    HW110283   4.351   0.733   2.727
 3399SOL    HW210284   4.258   0.838   2.670
 3400SOL     OW10285   3.038   0.039   4.821
 3400SOL    HW110286   3.028  -0.041   4.769
 3400SOL    HW210287   3.116   0.081   4.785
 3401SOL     OW10288   3.006   1.348   4.355
 3401SOL    HW110289   2.929   1.390   4.317
 3401SOL    HW210290   2.975   1.260   4.379
 3402SOL     OW10291   2.521   0.768   4.051
 3402SOL    HW110292   2.438   0.730   4.022
 3402SOL    HW210293   2.551   0.820   3.976
 3403SOL     OW10294   4.198   1.280   3.563
 3403SOL    HW110295   4.215   1.208   3.624
 3403SOL    HW210296   4.285   1.306   3.533
 3404SOL     OW10297   4.875   1.416   2.707
 3404SOL    HW110298   4.926   1.336   2.700
 3404SOL    HW210299   4.830   1.424   2.623
 3405SOL     OW10300   3.641   0.062   3.162
 3405SOL    HW110301   3.597   0.147   3.160
 3405SOL    HW210302   3.729   0.080   3.127
 3406SOL     OW10303   2.677   0.014   2.501
 3406SOL    HW110304   2.754   0.065   2.526
 3406SOL    HW210305   2.694  -0.011   2.410
 3407SOL     OW10306   3.795   1.856   3.971
 3407SOL    HW110307   3.740   1.932   3.951
 3407SOL    HW210308   3.881   1.878   3.936
 3408SOL     OW10309   4.365   1.195   2.739
 3408SOL    HW110310   4.401   1.153   2.660
 3408SOL    HW210311   4.295   1.136   2.767
 3409SOL     OW10312   3.380   1.664   4.360
 3409SOL    HW110313   3.292   1.628   4.375
 3409SOL    HW210314   3.436   1.615   4.420
 3410SOL     OW10315   3.471   1.262   3.575
 3410SOL    HW110316   3.523   1.249   3.496
 3410SOL    HW210317   3.395   1.311   3.545
 3411SOL     OW10318   4.075   0.444   4.039
 3411SOL    HW110319   4.043   0.480   3.956
 3411SOL    HW210320   4.092   0.521   4.093
 3412SOL     OW10321   2.583   0.809   3.757
 3412SOL    HW110322   2.589   0.842   3.668
 3412SOL    HW210323   2.492   0.781   3.766
 3413SOL     OW10324   4.315   0.545   2.736
 3413SOL    HW110325   4.394   0.522   2.687
 3413SOL    HW210326   4.337   0.526   2.827
 3414SOL     OW10327   3.859   2.003   4.318
 3414SOL    HW110328   3.847   2.052   4.399
 3414SOL    HW210329   3.918   2.057   4.265
 3415SOL     OW10330   2.872   2.065   2.928
 3415SOL    HW110331   2.963   2.042   2.946
 3415SOL    HW210332   2.822   1.988   2.956
 3416SOL     OW10333   3.326   1.691   3.845
 3416SOL    HW110334   3.251   1.726   3.797
 3416SOL    HW210335   3.292   1.674   3.933
 3417SOL     OW10336   3.696   2.119   4.024
 3417SOL    HW110337   3.647   2.116   3.942
 3417SOL    HW210338   3.629   2.116   4.093
 3418SOL     OW10339   4.834   2.003   3.425
 3418SOL    HW110340   4.787   2.066   3.370
 3418SOL    HW210341   4.789   2.007   3.510
 3419SOL     OW10342   3.044   2.132   4.881
 3419SOL    HW110343   3.132   2.170   4.877
 3419SOL    HW210344   3.049   2.067   4.952
 3420SOL     OW10345   4.173   0.965   3.111
 3420SOL    HW110346   4.231   1.040   3.125
 3420SOL    HW210347   4.207   0.897   3.168
 3421SOL     OW10348   3.773   1.292   3.768
 3421SOL    HW110349   3.770   1.367   3.828
 3421SOL    HW210350   3.686   1.291   3.727
 3422SOL     OW10351   2.936   1.033   3.506
 3422SOL    HW110352   3.002   0.998   3.566
 3422SOL    HW210353   2.882   1.091   3.561
 3423SOL     OW10354   2.848   1.414   4.717
 3423SOL    HW110355   2.940   1.409   4.694
 3423SOL    HW210356   2.814   1.487   4.664
 3424SOL     OW10357   4.342   1.166   3.133
 3424SOL    HW110358   4.403   1.169   3.207
 3424SOL    HW210359   4.297   1.250   3.136
 3425SOL     OW10360   4.139   1.552   3.786
 3425SOL    HW110361   4.077   1.493   3.744
 3425SOL    HW210362   4.195   1.494   3.839
 3426SOL     OW10363   3.292   2.165   2.709
 3426SOL    HW110364   3.231   2.095   2.684
 3426SOL    HW210365   3.346   2.127   2.778
 3427SOL     OW10366   2.703   1.703   3.835
 3427SOL    HW110367   2.708   1.710   3.740
 3427SOL    HW210368   2.610   1.687   3.852
 3428SOL     OW10369   3.129   1.045   3.913
 3428SOL    HW110370   3.205   1.100   3.897
 3428SOL    HW210371   3.080   1.091   3.981
 3429SOL     OW10372   4.219   1.122   3.813
 3429SOL    HW110373   4.126   1.114   3.790
 3429SOL    HW210374   4.219   1.136   3.908
 3430SOL     OW10375   3.710   0.119   4.251
 3430SOL    HW110376   3.624   0.128   4.209
 3430SOL    HW210377   3.707   0.033   4.292
 3431SOL     OW10378   3.222   2.107   3.963
 3431SOL    HW110379   3.313   2.081   3.945
 3431SOL    HW210380   3.214   2.194   3.925
 3432SOL     OW10381   4.584   1.889   2.562
 3432SOL    HW110382   4.668   1.923   2.595
 3432SOL    HW210383   4.544   1.846   2.637
 3433SOL     OW10384   4.761   1.044   2.967
 3433SOL    HW110385   4.673   1.007   2.970
 3433SOL    HW210386   4.785   1.043   2.874
 3434SOL     OW10387   4.935   0.234   2.820
 3434SOL    HW110388   4.996   0.280   2.878
 3434SOL    HW210389   4.974   0.147   2.808
 3435SOL     OW10390   3.834   1.335   2.762
 3435SOL    HW110391   3.778   1.388   2.705
 3435SOL    HW210392   3.806   1.358   2.850
 3436SOL     OW10393   2.854   1.309   3.896
 3436SOL    HW110394   2.905   1.349   3.967
 3436SOL    HW210395   2.769   1.353   3.901
 3437SOL     OW10396   3.421   1.912   3.256
 3437SOL    HW110397   3.500   1.966   3.263
 3437SOL    HW210398   3.400   1.887   3.346
 3438SOL     OW10399   4.387   1.607   3.388
 3438SOL    HW110400   4.411   1.533   3.443
 3438SOL    HW210401   4.425   1.586   3.302
 3439SOL     OW10402   3.409   1.549   2.850
 3439SOL    HW110403   3.337   1.494   2.880
 3439SOL    HW210404   3.445   1.587   2.931
 3440SOL     OW10405   4.152   0.404   3.237
 3440SOL    HW110406   4.119   0.324   3.195
 3440SOL    HW210407   4.076   0.462   3.240
 3441SOL     OW10408   3.232   0.921   2.785
 3441SOL    HW110409   3.144   0.952   2.803
 3441SOL    HW210410   3.264   0.978   2.715
 3442SOL     OW10411   3.823   2.033   2.915
 3442SOL    HW110412   3.811   2.121   2.880
 3442SOL    HW210413   3.803   2.041   3.008
 3443SOL     OW10414   3.597   2.379   3.375
 3443SOL    HW110415   3.506   2.408   3.375
 3443SOL    HW210416   3.637   2.425   3.301
 3444SOL     OW10417   2.556   2.430   3.101
 3444SOL    HW110418   2.481   2.388   3.142
 3444SOL    HW210419   2.553   2.403   3.010
 3445SOL     OW10420   2.734   0.038   3.295
 3445SOL    HW110421   2.672   0.052   3.367
 3445SOL    HW210422   2.682  -0.005   3.227
 3446SOL     OW10423   3.721   0.400   4.275
 3446SOL    HW110424   3.687   0.418   4.187
 3446SOL    HW210425   3.746   0.308   4.273
 3447SOL     OW10426   2.987   1.235   3.321
 3447SOL    HW110427   2.999   1.177   3.247
 3447SOL    HW210428   3.049   1.203   3.387
 3448SOL     OW10429   3.907   1.661   2.653
 3448SOL    HW110430   3.836   1.599   2.638
 3448SOL    HW210431   3.889   1.698   2.739
 3449SOL     OW10432   4.798   1.944   2.708
 3449SOL    HW110433   4.813   2.028   2.751
 3449SOL    HW210434   4.880   1.896   2.721
 3450SOL     OW10435   2.623   1.932   4.863
 3450SOL    HW110436   2.597   1.998   4.927
 3450SOL    HW210437   2.573   1.954   4.785
 3451SOL     OW10438   3.075   0.075   4.289
 3451SOL    HW110439   3.113   0.043   4.207
 3451SOL    HW210440   2.981   0.072   4.274
 3452SOL     OW10441   3.471   2.285   3.703
 3452SOL    HW110442   3.432   2.237   3.630
 3452SOL    HW210443   3.559   2.305   3.673
 3453SOL     OW10444   4.955   1.491   3.448
 3453SOL    HW110445   4.970   1.495   3.542
 3453SOL    HW210446   4.921   1.577   3.425
 3454SOL     OW10447   2.616   0.615   4.510
 3454SOL    HW110448   2.609   0.587   4.418
 3454SOL    HW210449   2.704   0.653   4.517
 3455SOL     OW10450   4.294   1.151   4.095
 3455SOL    HW110451   4.385   1.180   4.110
 3455SOL    HW210452   4.291   1.064   4.134
 3456SOL     OW10453   4.034   0.980   2.868
 3456SOL    HW110454   4.054   1.073   2.858
 3456SOL    HW210455   4.087   0.952   2.942
 3457SOL     OW10456   2.762   0.095   3.624
 3457SOL    HW110457   2.783   0.167   3.564
 3457SOL    HW210458   2.685   0.053   3.584
 3458SOL     OW10459   2.741   0.547   3.091
 3458SOL    HW110460   2.805   0.529   3.160
 3458SOL    HW210461   2.778   0.622   3.043
 3459SOL     OW10462   2.889   0.847   2.683
 3459SOL    HW110463   2.941   0.804   2.615
 3459SOL    HW210464   2.816   0.886   2.635
 3460SOL     OW10465   3.760   1.009   4.227
 3460SOL    HW110466   3.846   0.980   4.258
 3460SOL    HW210467   3.780   1.071   4.157
 3461SOL     OW10468   4.493   0.261   2.794
 3461SOL    HW110469   4.530   0.279   2.708
 3461SOL    HW210470   4.473   0.347   2.831
 3462SOL     OW10471   3.496   1.661   3.083
 3462SOL    HW110472   3.451   1.742   3.108
 3462SOL    HW210473   3.566   1.652   3.147
 3463SOL     OW10474   3.478   1.908   3.608
 3463SOL    HW110475   3.428   1.985   3.581
 3463SOL    HW210476   3.567   1.926   3.577
 3464SOL     OW10477   3.452   1.936   3.892
 3464SOL    HW110478   3.405   1.855   3.913
 3464SOL    HW210479   3.473   1.928   3.799
 3465SOL     OW10480   2.899   1.462   3.660
 3465SOL    HW110481   2.846   1.392   3.699
 3465SOL    HW210482   2.980   1.462   3.711
 3466SOL     OW10483   4.369   0.155   4.501
 3466SOL    HW110484   4.329   0.159   4.588
 3466SOL    HW210485   4.316   0.092   4.453
 3467SOL     OW10486   4.492   1.593   3.111
 3467SOL    HW110487   4.401   1.607   3.087
 3467SOL    HW210488   4.538   1.585   3.027
 3468SOL     OW10489   3.227   1.367   3.518
 3468SOL    HW110490   3.163   1.358   3.589
 3468SOL    HW210491   3.212   1.290   3.463
 3469SOL     OW10492   4.931   1.261   3.041
 3469SOL    HW110493   4.888   1.178   3.019
 3469SOL    HW210494   4.860   1.320   3.066
 3470SOL     OW10495   2.811   1.308   2.574
 3470SOL    HW110496   2.872   1.283   2.644
 3470SOL    HW210497   2.822   1.403   2.566
 3471SOL     OW10498   4.536   0.461   4.209
 3471SOL    HW110499   4.475   0.390   4.228
 3471SOL    HW210500   4.511   0.492   4.121
 3472SOL     OW10501   2.895   0.327   2.839
 3472SOL    HW110502   2.901   0.237   2.809
 3472SOL    HW210503   2.971   0.337   2.897
 3473SOL     OW10504   4.158   1.980   2.880
 3473SOL    HW110505   4.178   2.035   2.956
 3473SOL    HW210506   4.062   1.985   2.872
 3474SOL     OW10507   3.848   0.186   3.602
 3474SOL    HW110508   3.938   0.206   3.627
 3474SOL    HW210509   3.841   0.219   3.512
 3475SOL     OW10510   3.043   0.078   3.579
 3475SOL    HW110511   2.973   0.043   3.635
 3475SOL    HW210512   3.026   0.039   3.493
 3476SOL     OW10513   4.686   2.004   4.032
 3476SOL    HW110514   4.610   1.968   3.987
 3476SOL    HW210515   4.755   2.005   3.965
 3477SOL     OW10516   4.623   2.350   3.515
 3477SOL    HW110517   4.666   2.430   3.485
 3477SOL    HW210518   4.648   2.342   3.607
 3478SOL     OW10519   4.960   1.393   4.426
 3478SOL    HW110520   5.035   1.355   4.472
 3478SOL    HW210521   4.959   1.349   4.341
 3479SOL     OW10522   3.348   1.286   4.343
 3479SOL    HW110523   3.289   1.355   4.313
 3479SOL    HW210524   3.436   1.321   4.325
 3480SOL     OW10525   3.010   0.336   4.575
 3480SOL    HW110526   2.956   0.257   4.573
 3480SOL    HW210527   3.078   0.317   4.640
 3481SOL     OW10528   3.383   0.865   2.999
 3481SOL    HW110529   3.350   0.879   2.910
 3481SOL    HW210530   3.449   0.797   2.989
 3482SOL     OW10531   3.137   0.824   3.789
 3482SOL    HW110532   3.048   0.804   3.759
 3482SOL    HW210533   3.127   0.904   3.840
 3483SOL     OW10534   2.874   1.697   2.951
 3483SOL    HW110535   2.964   1.729   2.946
 3483SOL    HW210536   2.874   1.636   3.025
 3484SOL     OW10537   3.364   1.160   3.795
 3484SOL    HW110538   3.441   1.148   3.849
 3484SOL    HW210539   3.395   1.209   3.719
 3485SOL     OW10540   4.581   2.418   3.861
 3485SOL    HW110541   4.577   2.402   3.955
 3485SOL    HW210542   4.528   2.348   3.823
 3486SOL     OW10543   3.398   0.206   4.200
 3486SOL    HW110544   3.345   0.253   4.264
 3486SOL    HW210545   3.385   0.255   4.119
 3487SOL     OW10546   4.867   1.386   4.164
 3487SOL    HW110547   4.808   1.461   4.151
 3487SOL    HW210548   4.809   1.310   4.165
 3488SOL     OW10549   3.425   1.528   3.423
 3488SOL    HW110550   3.340   1.511   3.463
 3488SOL    HW210551   3.480   1.559   3.495
 3489SOL     OW10552   4.465   1.352   3.466
 3489SOL    HW110553   4.485   1.354   3.560
 3489SOL    HW210554   4.500   1.269   3.436
 3490SOL     OW10555   3.889   2.384   3.036
 3490SOL    HW110556   3.958   2.389   2.970
 3490SOL    HW210557   3.840   2.305   3.013
 3491SOL     OW10558   2.822   2.062   2.640
 3491SOL    HW110559   2.800   1.969   2.645
 3491SOL    HW210560   2.813   2.093   2.731
 3492SOL     OW10561   2.779   1.683   3.295
 3492SOL    HW110562   2.777   1.604   3.240
 3492SOL    HW210563   2.871   1.697   3.315
 3493SOL     OW10564   2.662   0.286   3.062
 3493SOL    HW110565   2.718   0.363   3.070
 3493SOL    HW210566   2.723   0.213   3.055
 3494SOL     OW10567   3.058   1.667   4.651
 3494SOL    HW110568   3.100   1.684   4.735
 3494SOL    HW210569   2.969   1.699   4.662
 3495SOL     OW10570   4.081   1.327   4.159
 3495SOL    HW110571   4.028   1.282   4.224
 3495SOL    HW210572   4.158   1.272   4.148
 3496SOL     OW10573   3.138   1.220   4.701
 3496SOL    HW110574   3.100   1.166   4.771
 3496SOL    HW210575   3.133   1.165   4.623
 3497SOL     OW10576   2.724   0.862   3.014
 3497SOL    HW110577   2.752   0.879   3.104
 3497SOL    HW210578   2.791   0.804   2.979
 3498SOL     OW10579   3.962   1.431   3.581
 3498SOL    HW110580   3.902   1.369   3.623
 3498SOL    HW210581   4.035   1.376   3.550
 3499SOL     OW10582   3.430   2.396   4.200
 3499SOL    HW110583   3.412   2.379   4.108
 3499SOL    HW210584   3.433   2.491   4.206
 3500SOL     OW10585   2.813   1.762   4.700
 3500SOL    HW110586   2.763   1.737   4.622
 3500SOL    HW210587   2.751   1.809   4.755
 3501SOL     OW10588   2.528   1.166   4.788
 3501SOL    HW110589   2.592   1.169   4.717
 3501SOL    HW210590   2.462   1.104   4.758
 3502SOL     OW10591   2.740   1.531   4.487
 3502SOL    HW110592   2.744   1.489   4.401
 3502SOL    HW210593   2.689   1.610   4.473
 3503SOL     OW10594   4.082   1.610   4.730
 3503SOL    HW110595   4.146   1.646   4.668
 3503SOL    HW210596   4.110   1.643   4.815
 3504SOL     OW10597   3.821   1.468   3.956
 3504SOL    HW110598   3.754   1.536   3.968
 3504SOL    HW210599   3.856   1.455   4.044
 3505SOL     OW10600   2.779   1.885   4.084
 3505SOL    HW110601   2.837   1.846   4.150
 3505SOL    HW210602   2.736   1.810   4.043
 3506SOL     OW10603   3.793   1.698   4.491
 3506SOL    HW110604   3.747   1.775   4.458
 3506SOL    HW210605   3.874   1.694   4.440
 3507SOL     OW10606   3.749   0.396   3.993
 3507SOL    HW110607   3.673   0.339   3.975
 3507SOL    HW210608   3.747   0.460   3.922
 3508SOL     OW10609   4.610   2.146   3.305
 3508SOL    HW110610   4.603   2.215   3.371
 3508SOL    HW210611   4.521   2.134   3.273
 3509SOL     OW10612   4.395   1.961   4.100
 3509SOL    HW110613   4.319   1.934   4.152
 3509SOL    HW210614   4.450   1.883   4.096
 3510SOL     OW10615   4.151   1.781   3.310
 3510SOL    HW110616   4.229   1.725   3.318
 3510SOL    HW210617   4.086   1.726   3.267
 3511SOL     OW10618   2.558   1.112   3.319
 3511SOL    HW110619   2.628   1.139   3.377
 3511SOL    HW210620   2.585   1.143   3.232
 3512SOL     OW10621   3.110   1.279   3.753
 3512SOL    HW110622   3.183   1.242   3.803
 3512SOL    HW210623   3.035   1.223   3.774
 3513SOL     OW10624   3.531   0.626   4.321
 3513SOL    HW110625   3.538   0.683   4.245
 3513SOL    HW210626   3.565   0.542   4.290
 3514SOL     OW10627   2.927   0.563   3.621
 3514SOL    HW110628   2.994   0.588   3.557
 3514SOL    HW210629   2.845   0.593   3.582
 3515SOL     OW10630   3.202   1.338   2.915
 3515SOL    HW110631   3.246   1.263   2.954
 3515SOL    HW210632   3.171   1.389   2.990
 3516SOL     OW10633   4.836   2.383   3.775
 3516SOL    HW110634   4.885   2.323   3.831
 3516SOL    HW210635   4.752   2.395   3.821
 3517SOL     OW10636   3.586   1.540   4.507
 3517SOL    HW110637   3.656   1.603   4.496
 3517SOL    HW210638   3.616   1.481   4.577
 3518SOL     OW10639   3.803   0.947   2.515
 3518SOL    HW110640   3.740   0.887   2.475
 3518SOL    HW210641   3.755   0.988   2.587
 3519SOL     OW10642   3.631   0.704   3.078
 3519SOL    HW110643   3.687   0.778   3.055
 3519SOL    HW210644   3.656   0.635   3.016
 3520SOL     OW10645   3.679   0.693   2.729
 3520SOL    HW110646   3.585   0.686   2.746
 3520SOL    HW210647   3.709   0.763   2.787
 3521SOL     OW10648   4.336   0.697   3.819
 3521SOL    HW110649   4.397   0.754   3.772
 3521SOL    HW210650   4.390   0.624   3.849
 3522SOL     OW10651   3.635   1.015   3.604
 3522SOL    HW110652   3.595   1.093   3.642
 3522SOL    HW210653   3.606   0.943   3.660
 3523SOL     OW10654   2.648   0.698   2.720
 3523SOL    HW110655   2.568   0.720   2.672
 3523SOL    HW210656   2.702   0.777   2.713
 3524SOL     OW10657   2.586   1.312   3.644
 3524SOL    HW110658   2.627   1.328   3.558
 3524SOL    HW210659   2.621   1.227   3.671
 3525SOL     OW10660   4.844   0.391   3.693
 3525SOL    HW110661   4.773   0.385   3.630
 3525SOL    HW210662   4.851   0.303   3.730
 3526SOL     OW10663   3.622   1.368   4.280
 3526SOL    HW110664   3.701   1.322   4.307
 3526SOL    HW210665   3.620   1.446   4.335
 3527SOL     OW10666   3.895   0.977   3.502
 3527SOL    HW110667   3.894   1.059   3.453
 3527SOL    HW210668   3.804   0.966   3.531
 3528SOL     OW10669   2.775   0.687   3.888
 3528SOL    HW110670   2.718   0.735   3.829
 3528SOL    HW210671   2.815   0.619   3.833
 3529SOL     OW10672   3.867   0.240   3.113
 3529SOL    HW110673   3.888   0.297   3.038
 3529SOL    HW210674   3.923   0.164   3.102
 3530SOL     OW10675   4.372   2.079   2.723
 3530SOL    HW110676   4.331   2.009   2.774
 3530SOL    HW210677   4.451   2.039   2.687
 3531SOL     OW10678   2.886   0.544   2.649
 3531SOL    HW110679   2.876   0.478   2.718
 3531SOL    HW210680   2.809   0.600   2.660
 3532SOL     OW10681   3.749   2.128   3.720
 3532SOL    HW110682   3.759   2.153   3.628
 3532SOL    HW210683   3.780   2.205   3.769
 3533SOL     OW10684   2.927   0.089   2.568
 3533SOL    HW110685   2.967   0.077   2.481
 3533SOL    HW210686   3.001   0.106   2.626
 3534SOL     OW10687   2.714   1.651   3.551
 3534SOL    HW110688   2.765   1.572   3.570
 3534SOL    HW210689   2.716   1.658   3.455
 3535SOL     OW10690   3.777   0.888   2.911
 3535SOL    HW110691   3.868   0.910   2.894
 3535SOL    HW210692   3.727   0.962   2.876
 3536SOL     OW10693   4.422   2.329   2.832
 3536SOL    HW110694   4.405   2.241   2.797
 3536SOL    HW210695   4.429   2.385   2.754
 3537SOL     OW10696   3.414   0.367   2.700
 3537SOL    HW110697   3.456   0.432   2.644
 3537SOL    HW210698   3.361   0.314   2.640
 3538SOL     OW10699   4.743   1.606   3.649
 3538SOL    HW110700   4.649   1.619   3.641
 3538SOL    HW210701   4.780   1.651   3.573
 3539SOL     OW10702   3.558   0.796   3.809
 3539SOL    HW110703   3.509   0.816   3.889
 3539SOL    HW210704   3.650   0.808   3.834
 3540SOL     OW10705   3.441   2.451   4.527
 3540SOL    HW110706   3.491   2.453   4.446
 3540SOL    HW210707   3.371   2.388   4.509
 3541SOL     OW10708   2.793   0.314   3.482
 3541SOL    HW110709   2.733   0.385   3.505
 3541SOL    HW210710   2.841   0.347   3.406
 3542SOL     OW10711   4.475   2.466   2.579
 3542SOL    HW110712   4.431   2.432   2.501
 3542SOL    HW210713   4.530   2.537   2.546
 3543SOL     OW10714   4.419   1.886   3.788
 3543SOL    HW110715   4.442   1.846   3.704
 3543SOL    HW210716   4.324   1.877   3.794
 3544SOL     OW10717   2.764   0.404   3.793
 3544SOL    HW110718   2.784   0.415   3.700
 3544SOL    HW210719   2.849   0.393   3.835
 3545SOL     OW10720   4.042   2.468   2.798
 3545SOL    HW110721   4.088   2.549   2.819
 3545SOL    HW210722   4.108   2.412   2.757
 3546SOL     OW10723   3.142   2.457   3.126
 3546SOL    HW110724   3.234   2.475   3.110
 3546SOL    HW210725   3.112   2.411   3.047
 3547SOL     OW10726   2.633   2.005   4.324
 3547SOL    HW110727   2.564   2.055   4.280
 3547SOL    HW210728   2.664   1.943   4.258
 3548SOL     OW10729   3.268   1.097   2.575
 3548SOL    HW110730   3.231   1.186   2.579
 3548SOL    HW210731   3.197   1.043   2.542
 3549SOL     OW10732   4.808   0.355   3.039
 3549SOL    HW110733   4.806   0.307   2.957
 3549SOL    HW210734   4.851   0.295   3.100
 3550SOL     OW10735   2.671   0.971   2.598
 3550SOL    HW110736   2.653   1.054   2.640
 3550SOL    HW210737   2.611   0.967   2.524
 3551SOL     OW10738   4.469   2.193   3.731
 3551SOL    HW110739   4.423   2.185   3.815
 3551SOL    HW210740   4.403   2.171   3.665
 3552SOL     OW10741   3.685   1.083   2.728
 3552SOL    HW110742   3.764   1.138   2.735
 3552SOL    HW210743   3.624   1.135   2.676
 3553SOL     OW10744   4.141   1.531   2.718
 3553SOL    HW110745   4.150   1.469   2.646
 3553SOL    HW210746   4.067   1.587   2.693
 3554SOL     OW10747   2.533   0.011   3.489
 3554SOL    HW110748   2.539  -0.083   3.468
 3554SOL    HW210749   2.441   0.032   3.474
 3555SOL     OW10750   3.790   0.545   2.515
 3555SOL    HW110751   3.754   0.607   2.578
 3555SOL    HW210752   3.871   0.514   2.554
 3556SOL     OW10753   3.241   1.780   3.539
 3556SOL    HW110754   3.336   1.774   3.553
 3556SOL    HW210755   3.208   1.821   3.619
 3557SOL     OW10756   4.456   1.586   3.690
 3557SOL    HW110757   4.471   1.512   3.749
 3557SOL    HW210758   4.361   1.593   3.684
 3558SOL     OW10759   4.584   0.184   3.962
 3558SOL    HW110760   4.549   0.107   3.916
 3558SOL    HW210761   4.675   0.190   3.933
 3559SOL     OW10762   3.362   2.121   3.488
 3559SOL    HW110763   3.271   2.130   3.516
 3559SOL    HW210764   3.361   2.145   3.396
 3560SOL     OW10765   4.645   0.351   3.514
 3560SOL    HW110766   4.567   0.316   3.557
 3560SOL    HW210767   4.617   0.437   3.481
 3561SOL     OW10768   4.932   1.980   4.617
 3561SOL    HW110769   4.921   2.062   4.666
 3561SOL    HW210770   4.924   2.005   4.525
 3562SOL     OW10771   3.383   0.373   3.975
 3562SOL    HW110772   3.343   0.456   3.952
 3562SOL    HW210773   3.448   0.357   3.906
 3563SOL     OW10774   4.557   1.364   2.845
 3563SOL    HW110775   4.497   1.294   2.822
 3563SOL    HW210776   4.615   1.326   2.910
 3564SOL     OW10777   3.422   0.883   3.437
 3564SOL    HW110778   3.418   0.796   3.478
 3564SOL    HW210779   3.467   0.868   3.354
 3565SOL     OW10780   4.830   1.019   4.631
 3565SOL    HW110781   4.838   0.977   4.545
 3565SOL    HW210782   4.740   1.050   4.635
 3566SOL     OW10783   4.129   2.385   3.537
 3566SOL    HW110784   4.106   2.429   3.619
 3566SOL    HW210785   4.045   2.375   3.491
 3567SOL     OW10786   3.217   1.101   3.517
 3567SOL    HW110787   3.273   1.037   3.472
 3567SOL    HW210788   3.251   1.104   3.606
 3568SOL     OW10789   3.062   2.222   3.547
 3568SOL    HW110790   3.057   2.270   3.464
 3568SOL    HW210791   2.978   2.175   3.552
 3569SOL     OW10792   3.154   0.569   2.723
 3569SOL    HW110793   3.158   0.595   2.815
 3569SOL    HW210794   3.070   0.524   2.714
 3570SOL     OW10795   3.711   2.369   3.834
 3570SOL    HW110796   3.772   2.419   3.889
 3570SOL    HW210797   3.650   2.328   3.897
 3571SOL     OW10798   4.145   0.668   4.230
 3571SOL    HW110799   4.052   0.678   4.253
 3571SOL    HW210800   4.184   0.626   4.306
 3572SOL     OW10801   3.815   2.146   3.458
 3572SOL    HW110802   3.877   2.109   3.394
 3572SOL    HW210803   3.821   2.240   3.445
 3573SOL     OW10804   2.760   2.418   4.745
 3573SOL    HW110805   2.684   2.412   4.687
 3573SOL    HW210806   2.785   2.327   4.760
 3574SOL     OW10807   3.532   1.108   3.343
 3574SOL    HW110808   3.627   1.118   3.338
 3574SOL    HW210809   3.519   1.034   3.401
 3575SOL     OW10810   4.530   0.879   2.917
 3575SOL    HW110811   4.445   0.860   2.877
 3575SOL    HW210812   4.582   0.800   2.900
 3576SOL     OW10813   4.173   1.817   3.712
 3576SOL    HW110814   4.178   1.722   3.710
 3576SOL    HW210815   4.083   1.836   3.738
 3577SOL     OW10816   4.295   0.288   3.941
 3577SOL    HW110817   4.353   0.260   4.012
 3577SOL    HW210818   4.210   0.301   3.983
 3578SOL     OW10819   4.313   0.837   4.071
 3578SOL    HW110820   4.292   0.831   3.978
 3578SOL    HW210821   4.246   0.784   4.114
 3579SOL     OW10822   2.913   0.745   4.866
 3579SOL    HW110823   2.844   0.776   4.807
 3579SOL    HW210824   2.890   0.654   4.884
 3580SOL     OW10825   3.495   0.409   3.364
 3580SOL    HW110826   3.434   0.365   3.423
 3580SOL    HW210827   3.476   0.372   3.278
 3581SOL     OW10828   2.709   1.063   3.731
 3581SOL    HW110829   2.679   0.973   3.747
 3581SOL    HW210830   2.712   1.103   3.818
 3582SOL     OW10831   4.457   2.397   4.120
 3582SOL    HW110832   4.535   2.416   4.172
 3582SOL    HW210833   4.388   2.449   4.161
 3583SOL     OW10834   4.724   0.590   3.368
 3583SOL    HW110835   4.817   0.589   3.345
 3583SOL    HW210836   4.696   0.680   3.349
 3584SOL     OW10837   3.401   0.696   2.771
 3584SOL    HW110838   3.338   0.769   2.774
 3584SOL    HW210839   3.365   0.636   2.706
 3585SOL     OW10840   4.711   1.117   4.207
 3585SOL    HW110841   4.769   1.045   4.232
 3585SOL    HW210842   4.623   1.079   4.212
 3586SOL     OW10843   3.178   0.704   4.233
 3586SOL    HW110844   3.235   0.659   4.296
 3586SOL    HW210845   3.187   0.797   4.255
 3587SOL     OW10846   4.296   2.211   4.401
 3587SOL    HW110847   4.385   2.181   4.419
 3587SOL    HW210848   4.299   2.245   4.312
 3588SOL     OW10849   4.778   0.863   3.319
 3588SOL    HW110850   4.832   0.842   3.243
 3588SOL    HW210851   4.688   0.853   3.289
 3589SOL     OW10852   4.219   0.008   4.271
 3589SOL    HW110853   4.184  -0.034   4.349
 3589SOL    HW210854   4.147   0.060   4.237
 3590SOL     OW10855   4.848   0.149   3.865
 3590SOL    HW110856   4.942   0.161   3.874
 3590SOL    HW210857   4.838   0.072   3.810
 3591SOL     OW10858   3.742   1.886   3.507
 3591SOL    HW110859   3.799   1.834   3.564
 3591SOL    HW210860   3.770   1.976   3.521
 3592SOL     OW10861   4.655   2.006   3.645
 3592SOL    HW110862   4.604   2.066   3.700
 3592SOL    HW210863   4.589   1.961   3.591
 3593SOL     OW10864   3.598   1.638   3.634
 3593SOL    HW110865   3.548   1.717   3.656
 3593SOL    HW210866   3.687   1.657   3.665
 3594SOL     OW10867   3.952   0.608   3.013
 3594SOL    HW110868   4.035   0.655   3.009
 3594SOL    HW210869   3.927   0.613   3.105
 3595SOL     OW10870   4.805   1.027   2.667
 3595SOL    HW110871   4.878   1.080   2.633
 3595SOL    HW210872   4.831   0.937   2.650
 3596SOL     OW10873   2.846   1.788   2.686
 3596SOL    HW110874   2.857   1.729   2.611
 3596SOL    HW210875   2.841   1.731   2.762
 3597SOL     OW10876   2.498   2.203   3.912
 3597SOL    HW110877   2.454   2.121   3.890
 3597SOL    HW210878   2.574   2.205   3.854
 3598SOL     OW10879   4.595   0.450   3.165
 3598SOL    HW110880   4.665   0.416   3.111
 3598SOL    HW210881   4.639   0.492   3.239
 3599SOL     OW10882   3.112   1.922   4.160
 3599SOL    HW110883   3.084   2.001   4.113
 3599SOL    HW210884   3.178   1.953   4.223
 3600SOL     OW10885   3.582   1.118   4.540
 3600SOL    HW110886   3.570   1.125   4.445
 3600SOL    HW210887   3.536   1.037   4.564
 3601SOL     OW10888   2.543   2.156   2.533
 3601SOL    HW110889   2.488   2.219   2.579
 3601SOL    HW210890   2.624   2.154   2.584
 3602SOL     OW10891   3.823   4.070   0.888
 3602SOL    HW110892   3.886   4.040   0.953
 3602SOL    HW210893   3.774   4.139   0.933
 3603SOL     OW10894   4.497   3.801   1.665
 3603SOL    HW110895   4.553   3.774   1.592
 3603SOL    HW210896   4.545   3.775   1.743
 3604SOL     OW10897   4.715   3.133   1.662
 3604SOL    HW110898   4.645   3.076   1.695
 3604SOL    HW210899   4.768   3.075   1.607
 3605SOL     OW10900   3.132   4.823   0.377
 3605SOL    HW110901   3.140   4.914   0.348
 3605SOL    HW210902   3.196   4.776   0.324
 3606SOL     OW10903   4.438   3.789   1.280
 3606SOL    HW110904   4.377   3.719   1.301
 3606SOL    HW210905   4.508   3.781   1.345
 3607SOL     OW10906   4.358   4.001   1.527
 3607SOL    HW110907   4.407   3.928   1.563
 3607SOL    HW210908   4.301   4.030   1.599
 3608SOL     OW10909   3.920   2.693   2.188
 3608SOL    HW110910   3.843   2.741   2.219
 3608SOL    HW210911   3.993   2.730   2.238
 3609SOL     OW10912   2.836   4.721   1.980
 3609SOL    HW110913   2.849   4.660   2.053
 3609SOL    HW210914   2.779   4.674   1.920
 3610SOL     OW10915   2.808   4.955   1.836
 3610SOL    HW110916   2.714   4.966   1.823
 3610SOL    HW210917   2.816   4.871   1.883
 3611SOL     OW10918   4.286   4.216   1.853
 3611SOL    HW110919   4.232   4.188   1.780
 3611SOL    HW210920   4.243   4.295   1.886
 3612SOL     OW10921   3.884   4.162   1.188
 3612SOL    HW110922   3.931   4.174   1.271
 3612SOL    HW210923   3.898   4.070   1.166
 3613SOL     OW10924   4.247   4.611   0.610
 3613SOL    HW110925   4.290   4.696   0.612
 3613SOL    HW210926   4.318   4.548   0.623
 3614SOL     OW10927   2.874   3.421   0.777
 3614SOL    HW110928   2.942   3.472   0.734
 3614SOL    HW210929   2.865   3.463   0.863
 3615SOL     OW10930   4.200   3.210   0.485
 3615SOL    HW110931   4.196   3.298   0.522
 3615SOL    HW210932   4.214   3.224   0.392
 3616SOL     OW10933   4.102   2.762   1.119
 3616SOL    HW110934   4.119   2.852   1.149
 3616SOL    HW210935   4.188   2.731   1.090
 3617SOL     OW10936   4.376   2.508   1.059
 3617SOL    HW110937   4.303   2.461   1.099
 3617SOL    HW210938   4.441   2.441   1.041
 3618SOL     OW10939   4.103   2.509   1.323
 3618SOL    HW110940   4.146   2.594   1.333
 3618SOL    HW210941   4.030   2.512   1.386
 3619SOL     OW10942   3.098   4.462   0.152
 3619SOL    HW110943   3.006   4.481   0.171
 3619SOL    HW210944   3.097   4.371   0.123
 3620SOL     OW10945   4.817   3.747   0.892
 3620SOL    HW110946   4.883   3.684   0.863
 3620SOL    HW210947   4.868   3.821   0.924
 3621SOL     OW10948   4.291   3.739   2.275
 3621SOL    HW110949   4.321   3.649   2.288
 3621SOL    HW210950   4.363   3.793   2.307
 3622SOL     OW10951   4.714   3.135   0.400
 3622SOL    HW110952   4.727   3.067   0.466
 3622SOL    HW210953   4.791   3.128   0.344
 3623SOL     OW10954   3.190   3.990   0.672
 3623SOL    HW110955   3.160   4.027   0.755
 3623SOL    HW210956   3.285   3.985   0.681
 3624SOL     OW10957   4.714   4.255   2.162
 3624SOL    HW110958   4.761   4.332   2.132
 3624SOL    HW210959   4.772   4.182   2.140
 3625SOL     OW10960   4.469   4.450   0.665
 3625SOL    HW110961   4.565   4.452   0.662
 3625SOL    HW210962   4.445   4.370   0.619
 3626SOL     OW10963   2.966   4.242   1.409
 3626SOL    HW110964   2.888   4.216   1.360
 3626SOL    HW210965   2.932   4.288   1.486
 3627SOL     OW10966   3.051   3.214   0.778
 3627SOL    HW110967   3.104   3.231   0.856
 3627SOL    HW210968   2.992   3.289   0.773
 3628SOL     OW10969   3.417   4.920   1.435
 3628SOL    HW110970   3.434   4.858   1.364
 3628SOL    HW210971   3.345   4.975   1.403
 3629SOL     OW10972   2.601   4.320   0.457
 3629SOL    HW110973   2.537   4.256   0.426
 3629SOL    HW210974   2.685   4.277   0.444
 3630SOL     OW10975   3.627   4.629   0.741
 3630SOL    HW110976   3.597   4.702   0.794
 3630SOL    HW210977   3.682   4.577   0.801
 3631SOL     OW10978   2.621   3.887   0.733
 3631SOL    HW110979   2.560   3.927   0.796
 3631SOL    HW210980   2.564   3.840   0.672
 3632SOL     OW10981   3.680   2.897   2.141
 3632SOL    HW110982   3.685   2.857   2.055
 3632SOL    HW210983   3.689   2.991   2.125
 3633SOL     OW10984   4.905   2.580   2.428
 3633SOL    HW110985   4.847   2.564   2.503
 3633SOL    HW210986   4.993   2.562   2.462
 3634SOL     OW10987   4.512   3.554   2.120
 3634SOL    HW110988   4.463   3.543   2.201
 3634SOL    HW210989   4.481   3.485   2.063
 3635SOL     OW10990   4.771   3.907   2.446
 3635SOL    HW110991   4.857   3.865   2.441
 3635SOL    HW210992   4.787   3.998   2.423
 3636SOL     OW10993   4.448   3.469   1.791
 3636SOL    HW110994   4.411   3.414   1.722
 3636SOL    HW210995   4.422   3.426   1.873
 3637SOL     OW10996   4.756   4.393   0.570
 3637SOL    HW110997   4.836   4.427   0.610
 3637SOL    HW210998   4.777   4.303   0.545
 3638SOL     OW10999   4.333   2.795   1.804
 3638SOL    HW111000   4.244   2.761   1.801
 3638SOL    HW211001   4.370   2.758   1.884
 3639SOL     OW11002   3.749   4.854   1.878
 3639SOL    HW111003   3.687   4.791   1.841
 3639SOL    HW211004   3.814   4.801   1.924
 3640SOL     OW11005   4.260   3.417   1.147
 3640SOL    HW111006   4.233   3.497   1.191
 3640SOL    HW211007   4.355   3.414   1.160
 3641SOL     OW11008   4.059   3.248   1.059
 3641SOL    HW111009   4.112   3.311   1.109
 3641SOL    HW211010   3.995   3.303   1.012
 3642SOL     OW11011   3.365   3.495   1.880
 3642SOL    HW111012   3.306   3.466   1.949
 3642SOL    HW211013   3.352   3.590   1.874
 3643SOL     OW11014   2.835   2.622   2.075
 3643SOL    HW111015   2.831   2.565   2.152
 3643SOL    HW211016   2.853   2.563   2.002
 3644SOL     OW11017   3.778   4.006   2.249
 3644SOL    HW111018   3.814   3.917   2.240
 3644SOL    HW211019   3.830   4.059   2.189
 3645SOL     OW11020   3.708   4.757   0.337
 3645SOL    HW111021   3.671   4.843   0.355
 3645SOL    HW211022   3.681   4.737   0.247
 3646SOL     OW11023   3.312   2.933   0.499
 3646SOL    HW111024   3.350   2.941   0.412
 3646SOL    HW211025   3.268   3.016   0.514
 3647SOL     OW11026   2.923   3.937   0.582
 3647SOL    HW111027   3.001   3.951   0.635
 3647SOL    HW211028   2.894   3.848   0.604
 3648SOL     OW11029   4.942   2.673   0.710
 3648SOL    HW111030   4.958   2.587   0.671
 3648SOL    HW211031   5.024   2.721   0.696
 3649SOL     OW11032   3.995   4.515   0.802
 3649SOL    HW111033   4.023   4.426   0.825
 3649SOL    HW211034   4.072   4.555   0.762
 3650SOL     OW11035   2.753   3.645   0.563
 3650SOL    HW111036   2.667   3.673   0.531
 3650SOL    HW211037   2.764   3.556   0.529
 3651SOL     OW11038   3.344   4.398   0.346
 3651SOL    HW111039   3.410   4.358   0.290
 3651SOL    HW211040   3.394   4.451   0.409
 3652SOL     OW11041   2.852   4.812   0.286
 3652SOL    HW111042   2.934   4.763   0.291
 3652SOL    HW211043   2.835   4.819   0.192
 3653SOL     OW11044   4.040   3.476   1.908
 3653SOL    HW111045   4.124   3.517   1.924
 3653SOL    HW211046   4.042   3.396   1.962
 3654SOL     OW11047   2.550   2.976   1.792
 3654SOL    HW111048   2.566   2.949   1.702
 3654SOL    HW211049   2.465   2.938   1.814
 3655SOL     OW11050   3.935   2.654   1.926
 3655SOL    HW111051   3.938   2.661   2.022
 3655SOL    HW211052   3.860   2.597   1.909
 3656SOL     OW11053   3.764   3.930   0.527
 3656SOL    HW111054   3.722   3.927   0.613
 3656SOL    HW211055   3.826   4.003   0.533
 3657SOL     OW11056   4.397   2.930   0.494
 3657SOL    HW111057   4.329   2.923   0.561
 3657SOL    HW211058   4.479   2.926   0.543
 3658SOL     OW11059   4.328   4.187   2.133
 3658SOL    HW111060   4.385   4.119   2.166
 3658SOL    HW211061   4.332   4.179   2.038
 3659SOL     OW11062   2.652   4.262   1.991
 3659SOL    HW111063   2.575   4.293   2.038
 3659SOL    HW211064   2.689   4.341   1.951
 3660SOL     OW11065   3.345   3.910   2.194
 3660SOL    HW111066   3.322   3.961   2.117
 3660SOL    HW211067   3.300   3.827   2.182
 3661SOL     OW11068   4.749   3.481   1.069
 3661SOL    HW111069   4.737   3.448   0.980
 3661SOL    HW211070   4.830   3.533   1.065
 3662SOL     OW11071   4.880   3.390   1.801
 3662SOL    HW111072   4.901   3.352   1.716
 3662SOL    HW211073   4.866   3.315   1.859
 3663SOL     OW11074   4.516   3.352   0.742
 3663SOL    HW111075   4.438   3.299   0.761
 3663SOL    HW211076   4.511   3.369   0.648
 3664SOL     OW11077   3.562   2.593   1.158
 3664SOL    HW111078   3.646   2.605   1.114
 3664SOL    HW211079   3.575   2.520   1.217
 3665SOL     OW11080   4.138   2.651   0.600
 3665SOL    HW111081   4.147   2.587   0.671
 3665SOL    HW211082   4.205   2.625   0.536
 3666SOL     OW11083   2.519   4.485   0.632
 3666SOL    HW111084   2.549   4.438   0.555
 3666SOL    HW211085   2.594   4.484   0.692
 3667SOL     OW11086   3.422   4.915   0.579
 3667SOL    HW111087   3.448   4.931   0.488
 3667SOL    HW211088   3.502   4.928   0.629
 3668SOL     OW11089   3.694   3.940   0.022
 3668SOL    HW111090   3.666   3.856  -0.014
 3668SOL    HW211091   3.731   3.987  -0.052
 3669SOL     OW11092   4.275   3.636   1.964
 3669SOL    HW111093   4.215   3.699   2.006
 3669SOL    HW211094   4.361   3.678   1.970
 3670SOL     OW11095   4.136   3.807   0.029
 3670SOL    HW111096   4.070   3.741   0.009
 3670SOL    HW211097   4.163   3.841  -0.056
 3671SOL     OW11098   3.040   2.980   1.647
 3671SOL    HW111099   3.054   3.069   1.681
 3671SOL    HW211100   3.084   2.923   1.710
 3672SOL     OW11101   3.769   2.786   0.888
 3672SOL    HW111102   3.787   2.762   0.797
 3672SOL    HW211103   3.694   2.845   0.883
 3673SOL     OW11104   2.901   4.315   1.841
 3673SOL    HW111105   2.988   4.325   1.803
 3673SOL    HW211106   2.913   4.251   1.911
 3674SOL     OW11107   2.733   2.736   1.749
 3674SOL    HW111108   2.758   2.729   1.842
 3674SOL    HW211109   2.741   2.829   1.729
 3675SOL     OW11110   3.043   3.992   1.553
 3675SOL    HW111111   3.012   4.063   1.498
 3675SOL    HW211112   3.110   4.031   1.608
 3676SOL     OW11113   3.136   2.823   1.854
 3676SOL    HW111114   3.093   2.822   1.940
 3676SOL    HW211115   3.133   2.732   1.825
 3677SOL     OW11116   4.217   3.004   1.988
 3677SOL    HW111117   4.213   2.976   2.079
 3677SOL    HW211118   4.274   2.940   1.945
 3678SOL     OW11119   2.859   3.612   1.919
 3678SOL    HW111120   2.801   3.577   1.851
 3678SOL    HW211121   2.928   3.546   1.927
 3679SOL     OW11122   3.547   4.276   1.646
 3679SOL    HW111123   3.568   4.326   1.567
 3679SOL    HW211124   3.545   4.185   1.617
 3680SOL     OW11125   4.150   4.905   2.070
 3680SOL    HW111126   4.073   4.888   2.124
 3680SOL    HW211127   4.195   4.821   2.066
 3681SOL     OW11128   2.975   2.764   1.487
 3681SOL    HW111129   2.996   2.706   1.559
 3681SOL    HW211130   2.997   2.852   1.519
 3682SOL     OW11131   3.336   4.426   1.846
 3682SOL    HW111132   3.329   4.348   1.901
 3682SOL    HW211133   3.368   4.394   1.762
 3683SOL     OW11134   3.905   4.953   1.508
 3683SOL    HW111135   3.896   5.033   1.560
 3683SOL    HW211136   3.884   4.882   1.569
 3684SOL     OW11137   3.230   3.090   1.434
 3684SOL    HW111138   3.211   3.169   1.384
 3684SOL    HW211139   3.156   3.082   1.496
 3685SOL     OW11140   4.545   4.603   2.066
 3685SOL    HW111141   4.530   4.542   2.138
 3685SOL    HW211142   4.580   4.549   1.995
 3686SOL     OW11143   3.327   4.730   0.764
 3686SOL    HW111144   3.364   4.756   0.679
 3686SOL    HW211145   3.238   4.764   0.763
 3687SOL     OW11146   4.853   3.217   1.996
 3687SOL    HW111147   4.940   3.180   2.010
 3687SOL    HW211148   4.802   3.146   1.957
 3688SOL     OW11149   4.360   4.675   1.484
 3688SOL    HW111150   4.382   4.599   1.537
 3688SOL    HW211151   4.386   4.750   1.538
 3689SOL     OW11152   3.116   2.744   0.520
 3689SOL    HW111153   3.193   2.799   0.529
 3689SOL    HW211154   3.098   2.713   0.608
 3690SOL     OW11155   2.555   2.906   2.190
 3690SOL    HW111156   2.548   2.821   2.148
 3690SOL    HW211157   2.581   2.966   2.119
 3691SOL     OW11158   3.549   4.971   0.336
 3691SOL    HW111159   3.599   5.052   0.337
 3691SOL    HW211160   3.509   4.969   0.249
 3692SOL     OW11161   4.084   2.850   2.453
 3692SOL    HW111162   4.150   2.795   2.496
 3692SOL    HW211163   4.079   2.928   2.507
 3693SOL     OW11164   4.706   4.666   0.481
 3693SOL    HW111165   4.790   4.671   0.436
 3693SOL    HW211166   4.701   4.576   0.513
 3694SOL     OW11167   3.885   3.745   1.901
 3694SOL    HW111168   3.922   3.794   1.974
 3694SOL    HW211169   3.902   3.653   1.923
 3695SOL     OW11170   4.827   3.184   1.365
 3695SOL    HW111171   4.862   3.097   1.348
 3695SOL    HW211172   4.744   3.187   1.318
 3696SOL     OW11173   3.096   3.505   1.760
 3696SOL    HW111174   3.158   3.552   1.704
 3696SOL    HW211175   3.011   3.518   1.717
 3697SOL     OW11176   4.537   4.419   2.295
 3697SOL    HW111177   4.521   4.427   2.389
 3697SOL    HW211178   4.585   4.337   2.285
 3698SOL     OW11179   4.108   3.736   0.363
 3698SOL    HW111180   4.025   3.779   0.343
 3698SOL    HW211181   4.171   3.776   0.303
 3699SOL     OW11182   2.913   3.042   1.943
 3699SOL    HW111183   2.915   3.023   1.849
 3699SOL    HW211184   2.943   2.961   1.985
 3700SOL     OW11185   4.588   3.328   1.537
 3700SOL    HW111186   4.496   3.326   1.562
 3700SOL    HW211187   4.630   3.263   1.594
 3701SOL     OW11188   3.598   3.596   1.460
 3701SOL    HW111189   3.677   3.648   1.475
 3701SOL    HW211190   3.620   3.509   1.493
 3702SOL     OW11191   4.820   3.787   1.238
 3702SOL    HW111192   4.911   3.805   1.217
 3702SOL    HW211193   4.773   3.867   1.216
 3703SOL     OW11194   4.929   4.140   1.452
 3703SOL    HW111195   4.860   4.132   1.386
 3703SOL    HW211196   4.881   4.163   1.532
 3704SOL     OW11197   4.572   4.220   1.850
 3704SOL    HW111198   4.599   4.158   1.917
 3704SOL    HW211199   4.476   4.213   1.847
 3705SOL     OW11200   4.414   2.758   1.156
 3705SOL    HW111201   4.397   2.777   1.249
 3705SOL    HW211202   4.418   2.662   1.152
 3706SOL     OW11203   4.419   4.349   0.996
 3706SOL    HW111204   4.391   4.376   0.909
 3706SOL    HW211205   4.387   4.260   1.006
 3707SOL     OW11206   3.101   2.847   1.137
 3707SOL    HW111207   3.063   2.759   1.135
 3707SOL    HW211208   3.028   2.904   1.160
 3708SOL     OW11209   2.665   4.689   1.197
 3708SOL    HW111210   2.599   4.712   1.132
 3708SOL    HW211211   2.722   4.626   1.154
 3709SOL     OW11212   2.998   2.960   0.728
 3709SOL    HW111213   3.074   2.902   0.726
 3709SOL    HW211214   3.026   3.034   0.781
 3710SOL     OW11215   3.921   3.653   2.379
 3710SOL    HW111216   3.866   3.596   2.433
 3710SOL    HW211217   3.999   3.600   2.360
 3711SOL     OW11218   4.904   4.668   1.714
 3711SOL    HW111219   4.810   4.679   1.706
 3711SOL    HW211220   4.939   4.687   1.627
 3712SOL     OW11221   4.548   3.354   1.205
 3712SOL    HW111222   4.617   3.407   1.165
 3712SOL    HW211223   4.573   3.349   1.298
 3713SOL     OW11224   3.088   4.779   1.343
 3713SOL    HW111225   3.114   4.766   1.251
 3713SOL    HW211226   3.000   4.817   1.337
 3714SOL     OW11227   3.661   3.100   0.856
 3714SOL    HW111228   3.639   3.133   0.769
 3714SOL    HW211229   3.606   3.022   0.867
 3715SOL     OW11230   2.826   4.077   0.020
 3715SOL    HW111231   2.735   4.098  -0.002
 3715SOL    HW211232   2.864   4.046  -0.062
 3716SOL     OW11233   3.806   3.394   1.401
 3716SOL    HW111234   3.853   3.323   1.445
 3716SOL    HW211235   3.855   3.473   1.425
 3717SOL     OW11236   4.564   2.955   0.103
 3717SOL    HW111237   4.576   2.939   0.009
 3717SOL    HW211238   4.647   2.993   0.131
 3718SOL     OW11239   3.076   3.455   2.390
 3718SOL    HW111240   2.987   3.489   2.377
 3718SOL    HW211241   3.065   3.361   2.402
 3719SOL     OW11242   2.575   3.888   1.457
 3719SOL    HW111243   2.509   3.867   1.523
 3719SOL    HW211244   2.550   3.975   1.425
 3720SOL     OW11245   4.464   4.654   2.478
 3720SOL    HW111246   4.394   4.648   2.543
 3720SOL    HW211247   4.445   4.582   2.417
 3721SOL     OW11248   2.539   4.712   0.404
 3721SOL    HW111249   2.634   4.721   0.407
 3721SOL    HW211250   2.517   4.665   0.485
 3722SOL     OW11251   2.796   3.206   1.686
 3722SOL    HW111252   2.703   3.189   1.673
 3722SOL    HW211253   2.836   3.187   1.601
 3723SOL     OW11254   4.497   2.969   1.394
 3723SOL    HW111255   4.506   2.963   1.299
 3723SOL    HW211256   4.447   2.891   1.418
 3724SOL     OW11257   2.503   3.077   0.431
 3724SOL    HW111258   2.550   3.005   0.473
 3724SOL    HW211259   2.565   3.112   0.367
 3725SOL     OW11260   2.540   3.372   0.987
 3725SOL    HW111261   2.462   3.323   0.960
 3725SOL    HW211262   2.534   3.454   0.938
 3726SOL     OW11263   2.992   3.507   0.358
 3726SOL    HW111264   2.949   3.590   0.336
 3726SOL    HW211265   2.937   3.440   0.317
 3727SOL     OW11266   3.537   3.366   1.693
 3727SOL    HW111267   3.617   3.419   1.699
 3727SOL    HW211268   3.475   3.410   1.750
 3728SOL     OW11269   2.828   3.473   1.663
 3728SOL    HW111270   2.755   3.520   1.624
 3728SOL    HW211271   2.834   3.392   1.613
 3729SOL     OW11272   3.962   4.623   1.601
 3729SOL    HW111273   3.877   4.607   1.561
 3729SOL    HW211274   4.020   4.640   1.527
 3730SOL     OW11275   2.639   2.585   1.400
 3730SOL    HW111276   2.652   2.580   1.305
 3730SOL    HW211277   2.715   2.633   1.432
 3731SOL     OW11278   2.538   4.884   2.116
 3731SOL    HW111279   2.492   4.820   2.171
 3731SOL    HW211280   2.512   4.863   2.027
 3732SOL     OW11281   2.756   3.355   2.171
 3732SOL    HW111282   2.781   3.447   2.186
 3732SOL    HW211283   2.780   3.338   2.080
 3733SOL     OW11284   4.164   3.877   0.610
 3733SOL    HW111285   4.181   3.834   0.526
 3733SOL    HW211286   4.178   3.970   0.593
 3734SOL     OW11287   3.463   3.801   1.594
 3734SOL    HW111288   3.520   3.837   1.661
 3734SOL    HW211289   3.504   3.719   1.568
 3735SOL     OW11290   3.334   2.726   1.015
 3735SOL    HW111291   3.391   2.687   1.081
 3735SOL    HW211292   3.254   2.749   1.063
 3736SOL     OW11293   4.528   3.995   2.237
 3736SOL    HW111294   4.562   3.919   2.285
 3736SOL    HW211295   4.595   4.013   2.171
 3737SOL     OW11296   3.118   4.156   2.431
 3737SOL    HW111297   3.073   4.172   2.514
 3737SOL    HW211298   3.188   4.096   2.453
 3738SOL     OW11299   4.814   3.476   1.476
 3738SOL    HW111300   4.735   3.444   1.520
 3738SOL    HW211301   4.825   3.418   1.401
 3739SOL     OW11302   4.572   3.758   1.946
 3739SOL    HW111303   4.620   3.693   1.895
 3739SOL    HW211304   4.552   3.714   2.029
 3740SOL     OW11305   2.509   3.337   2.336
 3740SOL    HW111306   2.580   3.282   2.303
 3740SOL    HW211307   2.451   3.348   2.261
 3741SOL     OW11308   3.182   3.168   1.021
 3741SOL    HW111309   3.239   3.092   1.008
 3741SOL    HW211310   3.208   3.204   1.106
 3742SOL     OW11311   2.562   3.704   0.072
 3742SOL    HW111312   2.539   3.691  -0.020
 3742SOL    HW211313   2.650   3.741   0.070
 3743SOL     OW11314   4.679   3.006   1.961
 3743SOL    HW111315   4.639   3.000   1.874
 3743SOL    HW211316   4.664   2.920   2.000
 3744SOL     OW11317   3.519   3.010   2.471
 3744SOL    HW111318   3.612   3.030   2.479
 3744SOL    HW211319   3.516   2.928   2.423
 3745SOL     OW11320   4.655   4.463   1.856
 3745SOL    HW111321   4.621   4.374   1.856
 3745SOL    HW211322   4.701   4.472   1.772
 3746SOL     OW11323   2.504   2.669   2.057
 3746SOL    HW111324   2.518   2.581   2.093
 3746SOL    HW211325   2.492   2.655   1.963
 3747SOL     OW11326   4.712   3.904   0.651
 3747SOL    HW111327   4.739   3.871   0.737
 3747SOL    HW211328   4.622   3.935   0.664
 3748SOL     OW11329   3.261   4.163   1.629
 3748SOL    HW111330   3.325   4.158   1.700
 3748SOL    HW211331   3.218   4.248   1.641
 3749SOL     OW11332   4.098   4.680   1.347
 3749SOL    HW111333   4.114   4.768   1.314
 3749SOL    HW211334   4.183   4.651   1.382
 3750SOL     OW11335   3.153   3.186   0.521
 3750SOL    HW111336   3.203   3.267   0.525
 3750SOL    HW211337   3.132   3.166   0.612
 3751SOL     OW11338   4.693   4.939   0.419
 3751SOL    HW111339   4.636   4.996   0.470
 3751SOL    HW211340   4.652   4.853   0.425
 3752SOL     OW11341   2.614   2.490   0.281
 3752SOL    HW111342   2.611   2.497   0.185
 3752SOL    HW211343   2.702   2.455   0.299
 3753SOL     OW11344   2.754   3.216   0.976
 3753SOL    HW111345   2.681   3.278   0.982
 3753SOL    HW211346   2.808   3.249   0.904
 3754SOL     OW11347   4.884   4.221   0.876
 3754SOL    HW111348   4.883   4.207   0.781
 3754SOL    HW211349   4.842   4.307   0.887
 3755SOL     OW11350   2.853   4.532   1.105
 3755SOL    HW111351   2.902   4.459   1.066
 3755SOL    HW211352   2.859   4.516   1.199
 3756SOL     OW11353   4.963   3.245   0.648
 3756SOL    HW111354   4.990   3.329   0.610
 3756SOL    HW211355   4.985   3.180   0.581
 3757SOL     OW11356   2.825   4.597   2.228
 3757SOL    HW111357   2.762   4.536   2.267
 3757SOL    HW211358   2.903   4.589   2.283
 3758SOL     OW11359   2.589   3.605   1.486
 3758SOL    HW111360   2.595   3.697   1.460
 3758SOL    HW211361   2.496   3.586   1.486
 3759SOL     OW11362   3.158   4.429   1.255
 3759SOL    HW111363   3.081   4.380   1.284
 3759SOL    HW211364   3.160   4.506   1.312
 3760SOL     OW11365   2.607   2.958   1.062
 3760SOL    HW111366   2.578   3.000   0.982
 3760SOL    HW211367   2.528   2.945   1.113
 3761SOL     OW11368   3.154   3.463   2.068
 3761SOL    HW111369   3.180   3.386   2.117
 3761SOL    HW211370   3.086   3.432   2.008
 3762SOL     OW11371   2.566   4.703   0.934
 3762SOL    HW111372   2.494   4.656   0.892
 3762SOL    HW211373   2.645   4.674   0.888
 3763SOL     OW11374   3.968   3.589   1.261
 3763SOL    HW111375   3.945   3.509   1.215
 3763SOL    HW211376   3.886   3.639   1.264
 3764SOL     OW11377   2.935   3.777   0.340
 3764SOL    HW111378   3.026   3.782   0.368
 3764SOL    HW211379   2.895   3.857   0.376
 3765SOL     OW11380   4.879   4.133   0.614
 3765SOL    HW111381   4.960   4.090   0.587
 3765SOL    HW211382   4.816   4.061   0.625
 3766SOL     OW11383   4.402   3.489   2.360
 3766SOL    HW111384   4.469   3.483   2.428
 3766SOL    HW211385   4.379   3.398   2.340
 3767SOL     OW11386   3.558   4.657   1.782
 3767SOL    HW111387   3.515   4.743   1.783
 3767SOL    HW211388   3.489   4.596   1.806
 3768SOL     OW11389   3.899   3.068   1.848
 3768SOL    HW111390   3.850   2.993   1.815
 3768SOL    HW211391   3.851   3.097   1.925
 3769SOL     OW11392   4.291   3.220   0.776
 3769SOL    HW111393   4.234   3.235   0.852
 3769SOL    HW211394   4.257   3.140   0.737
 3770SOL     OW11395   2.856   3.622   2.348
 3770SOL    HW111396   2.783   3.657   2.297
 3770SOL    HW211397   2.850   3.667   2.432
 3771SOL     OW11398   2.529   2.598   1.649
 3771SOL    HW111399   2.601   2.656   1.671
 3771SOL    HW211400   2.545   2.573   1.558
 3772SOL     OW11401   3.417   3.117   1.153
 3772SOL    HW111402   3.418   3.175   1.229
 3772SOL    HW211403   3.503   3.074   1.155
 3773SOL     OW11404   3.262   3.151   2.474
 3773SOL    HW111405   3.202   3.118   2.542
 3773SOL    HW211406   3.336   3.091   2.477
 3774SOL     OW11407   3.046   2.899   2.445
 3774SOL    HW111408   2.984   2.957   2.489
 3774SOL    HW211409   3.002   2.875   2.364
 3775SOL     OW11410   3.114   4.951   1.561
 3775SOL    HW111411   3.145   5.009   1.492
 3775SOL    HW211412   3.114   4.864   1.521
 3776SOL     OW11413   3.793   3.726   0.894
 3776SOL    HW111414   3.885   3.741   0.871
 3776SOL    HW211415   3.744   3.763   0.820
 3777SOL     OW11416   3.775   4.252   0.444
 3777SOL    HW111417   3.793   4.339   0.410
 3777SOL    HW211418   3.693   4.226   0.402
 3778SOL     OW11419   4.012   3.463   1.635
 3778SOL    HW111420   4.033   3.460   1.728
 3778SOL    HW211421   4.021   3.372   1.605
 3779SOL     OW11422   2.728   3.843   1.761
 3779SOL    HW111423   2.694   3.756   1.781
 3779SOL    HW211424   2.671   3.875   1.691
 3780SOL     OW11425   3.534   4.039   1.474
 3780SOL    HW111426   3.496   3.951   1.465
 3780SOL    HW211427   3.473   4.096   1.427
 3781SOL     OW11428   3.951   4.182   0.631
 3781SOL    HW111429   3.900   4.205   0.553
 3781SOL    HW211430   3.885   4.152   0.693
 3782SOL     OW11431   3.284   2.670   2.234
 3782SOL    HW111432   3.296   2.610   2.161
 3782SOL    HW211433   3.371   2.705   2.251
 3783SOL     OW11434   4.172   4.458   1.908
 3783SOL    HW111435   4.188   4.552   1.921
 3783SOL    HW211436   4.125   4.431   1.987
 3784SOL     OW11437   4.051   3.756   0.843
 3784SOL    HW111438   4.124   3.749   0.905
 3784SOL    HW211439   4.088   3.804   0.768
 3785SOL     OW11440   3.126   4.253   0.443
 3785SOL    HW111441   3.191   4.311   0.403
 3785SOL    HW211442   3.146   4.255   0.537
 3786SOL     OW11443   4.379   3.340   2.007
 3786SOL    HW111444   4.296   3.301   2.035
 3786SOL    HW211445   4.446   3.282   2.043
 3787SOL     OW11446   3.090   3.553   0.630
 3787SOL    HW111447   3.063   3.538   0.540
 3787SOL    HW211448   3.185   3.542   0.629
 3788SOL     OW11449   3.268   4.691   2.029
 3788SOL    HW111450   3.256   4.607   1.985
 3788SOL    HW211451   3.184   4.709   2.070
 3789SOL     OW11452   2.904   3.190   0.434
 3789SOL    HW111453   2.986   3.187   0.485
 3789SOL    HW211454   2.932   3.211   0.345
 3790SOL     OW11455   3.477   4.605   0.471
 3790SOL    HW111456   3.507   4.593   0.561
 3790SOL    HW211457   3.531   4.677   0.438
 3791SOL     OW11458   4.750   2.606   0.930
 3791SOL    HW111459   4.715   2.692   0.953
 3791SOL    HW211460   4.821   2.624   0.868
 3792SOL     OW11461   3.167   4.034   1.953
 3792SOL    HW111462   3.120   3.951   1.944
 3792SOL    HW211463   3.123   4.079   2.025
 3793SOL     OW11464   4.333   2.577   0.436
 3793SOL    HW111465   4.388   2.498   0.438
 3793SOL    HW211466   4.389   2.644   0.398
 3794SOL     OW11467   4.199   4.913   0.781
 3794SOL    HW111468   4.260   4.978   0.815
 3794SOL    HW211469   4.176   4.860   0.858
 3795SOL     OW11470   4.229   2.960   2.243
 3795SOL    HW111471   4.290   2.887   2.253
 3795SOL    HW211472   4.149   2.930   2.286
 3796SOL     OW11473   2.503   3.040   0.823
 3796SOL    HW111474   2.533   3.112   0.768
 3796SOL    HW211475   2.518   2.961   0.770
 3797SOL     OW11476   4.243   4.175   0.537
 3797SOL    HW111477   4.232   4.225   0.456
 3797SOL    HW211478   4.163   4.193   0.587
 3798SOL     OW11479   3.894   3.176   1.555
 3798SOL    HW111480   3.868   3.108   1.616
 3798SOL    HW211481   3.892   3.134   1.469
 3799SOL     OW11482   3.877   4.214   1.713
 3799SOL    HW111483   3.891   4.301   1.752
 3799SOL    HW211484   3.824   4.232   1.635
 3800SOL     OW11485   4.373   2.686   0.812
 3800SOL    HW111486   4.329   2.771   0.822
 3800SOL    HW211487   4.394   2.659   0.901
 3801SOL     OW11488   4.566   3.611   0.844
 3801SOL    HW111489   4.547   3.519   0.828
 3801SOL    HW211490   4.660   3.619   0.833
 3802SOL     OW11491   2.616   2.976   1.551
 3802SOL    HW111492   2.677   3.031   1.503
 3802SOL    HW211493   2.584   2.912   1.487
 3803SOL     OW11494   3.112   4.096   0.902
 3803SOL    HW111495   3.176   4.151   0.947
 3803SOL    HW211496   3.093   4.025   0.964
 3804SOL     OW11497   3.890   3.055   1.303
 3804SOL    HW111498   3.972   3.054   1.253
 3804SOL    HW211499   3.821   3.044   1.237
 3805SOL     OW11500   2.692   3.728   2.116
 3805SOL    HW111501   2.746   3.795   2.158
 3805SOL    HW211502   2.732   3.717   2.029
 3806SOL     OW11503   3.218   2.634   1.332
 3806SOL    HW111504   3.204   2.722   1.367
 3806SOL    HW211505   3.147   2.621   1.269
 3807SOL     OW11506   3.900   2.878   0.363
 3807SOL    HW111507   3.924   2.958   0.408
 3807SOL    HW211508   3.965   2.869   0.293
 3808SOL     OW11509   2.537   4.879   1.830
 3808SOL    HW111510   2.510   4.944   1.765
 3808SOL    HW211511   2.497   4.797   1.801
 3809SOL     OW11512   3.861   3.661   1.556
 3809SOL    HW111513   3.932   3.600   1.576
 3809SOL    HW211514   3.904   3.735   1.514
 3810SOL     OW11515   4.523   4.215   1.506
 3810SOL    HW111516   4.471   4.135   1.500
 3810SOL    HW211517   4.502   4.264   1.427
 3811SOL     OW11518   3.523   4.148   2.267
 3811SOL    HW111519   3.493   4.070   2.219
 3811SOL    HW211520   3.616   4.154   2.248
 3812SOL     OW11521   4.142   3.047   1.199
 3812SOL    HW111522   4.222   3.072   1.245
 3812SOL    HW211523   4.114   3.125   1.153
 3813SOL     OW11524   3.168   4.384   0.744
 3813SOL    HW111525   3.263   4.378   0.740
 3813SOL    HW211526   3.145   4.450   0.679
 3814SOL     OW11527   3.879   4.876   0.870
 3814SOL    HW111528   3.787   4.901   0.873
 3814SOL    HW211529   3.908   4.902   0.783
 3815SOL     OW11530   3.041   4.884   2.042
 3815SOL    HW111531   3.059   4.931   1.960
 3815SOL    HW211532   2.964   4.831   2.024
 3816SOL     OW11533   4.803   4.814   0.704
 3816SOL    HW111534   4.767   4.841   0.620
 3816SOL    HW211535   4.731   4.768   0.747
 3817SOL     OW11536   4.748   4.130   1.665
 3817SOL    HW111537   4.688   4.162   1.597
 3817SOL    HW211538   4.709   4.160   1.747
 3818SOL     OW11539   2.505   4.319   1.125
 3818SOL    HW111540   2.470   4.349   1.041
 3818SOL    HW211541   2.574   4.258   1.102
 3819SOL     OW11542   3.961   4.449   1.272
 3819SOL    HW111543   4.023   4.518   1.295
 3819SOL    HW211544   3.876   4.492   1.273
 3820SOL     OW11545   2.836   4.862   1.324
 3820SOL    HW111546   2.819   4.947   1.284
 3820SOL    HW211547   2.785   4.800   1.272
 3821SOL     OW11548   3.580   2.829   1.289
 3821SOL    HW111549   3.563   2.745   1.246
 3821SOL    HW211550   3.624   2.882   1.223
 3822SOL     OW11551   4.676   3.755   1.464
 3822SOL    HW111552   4.725   3.754   1.381
 3822SOL    HW211553   4.723   3.694   1.520
 3823SOL     OW11554   2.900   3.312   1.947
 3823SOL    HW111555   2.914   3.218   1.950
 3823SOL    HW211556   2.867   3.328   1.858
 3824SOL     OW11557   2.747   3.791   0.939
 3824SOL    HW111558   2.838   3.762   0.934
 3824SOL    HW211559   2.729   3.829   0.852
 3825SOL     OW11560   4.257   4.582   1.124
 3825SOL    HW111561   4.180   4.569   1.069
 3825SOL    HW211562   4.288   4.493   1.143
 3826SOL     OW11563   3.519   2.796   0.645
 3826SOL    HW111564   3.582   2.812   0.575
 3826SOL    HW211565   3.435   2.824   0.610
 3827SOL     OW11566   2.776   2.882   2.360
 3827SOL    HW111567   2.699   2.909   2.312
 3827SOL    HW211568   2.787   2.789   2.339
 3828SOL     OW11569   3.852   4.646   2.047
 3828SOL    HW111570   3.778   4.646   2.108
 3828SOL    HW211571   3.928   4.626   2.101
 3829SOL     OW11572   3.627   4.395   1.881
 3829SOL    HW111573   3.715   4.420   1.854
 3829SOL    HW211574   3.593   4.344   1.807
 3830SOL     OW11575   3.931   3.095   0.816
 3830SOL    HW111576   3.836   3.103   0.829
 3830SOL    HW211577   3.969   3.127   0.898
 3831SOL     OW11578   4.132   4.091   1.674
 3831SOL    HW111579   4.056   4.144   1.651
 3831SOL    HW211580   4.097   4.003   1.686
 3832SOL     OW11581   4.699   4.925   1.742
 3832SOL    HW111582   4.695   4.906   1.835
 3832SOL    HW211583   4.733   5.014   1.736
 3833SOL     OW11584   4.228   2.658   2.243
 3833SOL    HW111585   4.225   2.614   2.328
 3833SOL    HW211586   4.170   2.605   2.187
 3834SOL     OW11587   2.816   4.505   1.369
 3834SOL    HW111588   2.795   4.451   1.446
 3834SOL    HW211589   2.777   4.590   1.389
 3835SOL     OW11590   2.543   4.155   0.011
 3835SOL    HW111591   2.582   4.238  -0.016
 3835SOL    HW211592   2.449   4.168   0.001
 3836SOL     OW11593   3.155   2.712   0.783
 3836SOL    HW111594   3.127   2.620   0.787
 3836SOL    HW211595   3.218   2.721   0.855
 3837SOL     OW11596   4.067   4.475   2.170
 3837SOL    HW111597   3.991   4.425   2.199
 3837SOL    HW211598   4.125   4.476   2.246
 3838SOL     OW11599   4.562   2.536   0.649
 3838SOL    HW111600   4.486   2.592   0.667
 3838SOL    HW211601   4.619   2.549   0.725
 3839SOL     OW11602   3.133   3.832   0.048
 3839SOL    HW111603   3.108   3.901   0.110
 3839SOL    HW211604   3.120   3.872  -0.038
 3840SOL     OW11605   4.801   2.870   1.594
 3840SOL    HW111606   4.862   2.797   1.594
 3840SOL    HW211607   4.717   2.830   1.572
 3841SOL     OW11608   2.585   3.616   1.809
 3841SOL    HW111609   2.512   3.578   1.857
 3841SOL    HW211610   2.599   3.555   1.736
 3842SOL     OW11611   2.974   4.889   0.851
 3842SOL    HW111612   3.029   4.889   0.772
 3842SOL    HW211613   2.894   4.934   0.824
 3843SOL     OW11614   4.861   4.473   1.319
 3843SOL    HW111615   4.927   4.441   1.257
 3843SOL    HW211616   4.781   4.477   1.267
 3844SOL     OW11617   4.024   2.703   1.688
 3844SOL    HW111618   4.030   2.791   1.653
 3844SOL    HW211619   3.967   2.711   1.765
 3845SOL     OW11620   4.641   3.110   1.144
 3845SOL    HW111621   4.599   3.194   1.131
 3845SOL    HW211622   4.700   3.100   1.069
 3846SOL     OW11623   3.339   3.604   0.557
 3846SOL    HW111624   3.382   3.526   0.523
 3846SOL    HW211625   3.405   3.645   0.614
 3847SOL     OW11626   4.552   3.768   2.398
 3847SOL    HW111627   4.561   3.689   2.451
 3847SOL    HW211628   4.631   3.818   2.416
 3848SOL     OW11629   2.973   4.357   0.943
 3848SOL    HW111630   3.024   4.383   0.866
 3848SOL    HW211631   3.027   4.289   0.984
 3849SOL     OW11632   2.720   4.448   0.817
 3849SOL    HW111633   2.782   4.456   0.890
 3849SOL    HW211634   2.706   4.354   0.807
 3850SOL     OW11635   3.179   3.748   1.574
 3850SOL    HW111636   3.136   3.834   1.581
 3850SOL    HW211637   3.272   3.769   1.564
 3851SOL     OW11638   3.633   3.937   0.758
 3851SOL    HW111639   3.552   3.948   0.809
 3851SOL    HW211640   3.702   3.968   0.817
 3852SOL     OW11641   3.729   2.985   1.101
 3852SOL    HW111642   3.732   2.899   1.058
 3852SOL    HW211643   3.728   3.048   1.028
 3853SOL     OW11644   3.116   4.580   0.558
 3853SOL    HW111645   3.190   4.629   0.522
 3853SOL    HW211646   3.045   4.643   0.563
 3854SOL     OW11647   3.038   2.526   2.334
 3854SOL    HW111648   3.028   2.446   2.282
 3854SOL    HW211649   3.116   2.568   2.298
 3855SOL     OW11650   3.006   3.835   1.868
 3855SOL    HW111651   2.929   3.877   1.830
 3855SOL    HW211652   2.975   3.747   1.892
 3856SOL     OW11653   2.521   3.255   1.564
 3856SOL    HW111654   2.438   3.217   1.535
 3856SOL    HW211655   2.551   3.307   1.489
 3857SOL     OW11656   4.198   3.767   1.076
 3857SOL    HW111657   4.215   3.695   1.137
 3857SOL    HW211658   4.285   3.793   1.046
 3858SOL     OW11659   3.641   2.549   0.675
 3858SOL    HW111660   3.597   2.634   0.673
 3858SOL    HW211661   3.729   2.567   0.640
 3859SOL     OW11662   2.677   2.501   0.014
 3859SOL    HW111663   2.754   2.552   0.039
 3859SOL    HW211664   2.694   2.476  -0.077
 3860SOL     OW11665   3.795   4.343   1.484
 3860SOL    HW111666   3.740   4.419   1.464
 3860SOL    HW211667   3.881   4.365   1.449
 3861SOL     OW11668   4.079   3.242   2.048
 3861SOL    HW111669   4.113   3.153   2.034
 3861SOL    HW211670   4.041   3.239   2.136
 3862SOL     OW11671   3.380   4.151   1.873
 3862SOL    HW111672   3.292   4.115   1.888
 3862SOL    HW211673   3.436   4.102   1.933
 3863SOL     OW11674   3.218   3.235   2.196
 3863SOL    HW111675   3.233   3.210   2.288
 3863SOL    HW211676   3.146   3.178   2.168
 3864SOL     OW11677   3.471   3.749   1.088
 3864SOL    HW111678   3.523   3.736   1.009
 3864SOL    HW211679   3.395   3.798   1.058
 3865SOL     OW11680   4.075   2.931   1.552
 3865SOL    HW111681   4.043   2.967   1.469
 3865SOL    HW211682   4.092   3.008   1.606
 3866SOL     OW11683   2.583   3.296   1.270
 3866SOL    HW111684   2.589   3.329   1.181
 3866SOL    HW211685   2.492   3.268   1.279
 3867SOL     OW11686   3.859   4.490   1.831
 3867SOL    HW111687   3.847   4.539   1.912
 3867SOL    HW211688   3.918   4.544   1.778
 3868SOL     OW11689   2.872   4.552   0.441
 3868SOL    HW111690   2.963   4.529   0.459
 3868SOL    HW211691   2.822   4.475   0.469
 3869SOL     OW11692   3.326   4.178   1.358
 3869SOL    HW111693   3.251   4.213   1.310
 3869SOL    HW211694   3.292   4.161   1.446
 3870SOL     OW11695   3.696   4.606   1.537
 3870SOL    HW111696   3.647   4.603   1.455
 3870SOL    HW211697   3.629   4.603   1.606
 3871SOL     OW11698   4.834   4.490   0.938
 3871SOL    HW111699   4.787   4.553   0.883
 3871SOL    HW211700   4.789   4.494   1.023
 3872SOL     OW11701   4.173   3.452   0.624
 3872SOL    HW111702   4.231   3.527   0.638
 3872SOL    HW211703   4.207   3.384   0.681
 3873SOL     OW11704   3.773   3.779   1.281
 3873SOL    HW111705   3.770   3.854   1.341
 3873SOL    HW211706   3.686   3.778   1.240
 3874SOL     OW11707   2.936   3.520   1.019
 3874SOL    HW111708   3.002   3.485   1.079
 3874SOL    HW211709   2.882   3.578   1.074
 3875SOL     OW11710   2.848   3.901   2.230
 3875SOL    HW111711   2.940   3.896   2.207
 3875SOL    HW211712   2.814   3.974   2.177
 3876SOL     OW11713   4.342   3.653   0.646
 3876SOL    HW111714   4.403   3.656   0.720
 3876SOL    HW211715   4.297   3.737   0.649
 3877SOL     OW11716   4.139   4.039   1.299
 3877SOL    HW111717   4.077   3.980   1.257
 3877SOL    HW211718   4.195   3.981   1.352
 3878SOL     OW11719   3.292   4.652   0.222
 3878SOL    HW111720   3.231   4.582   0.197
 3878SOL    HW211721   3.346   4.614   0.291
 3879SOL     OW11722   2.703   4.190   1.348
 3879SOL    HW111723   2.708   4.197   1.253
 3879SOL    HW211724   2.610   4.174   1.365
 3880SOL     OW11725   3.129   3.532   1.426
 3880SOL    HW111726   3.205   3.587   1.410
 3880SOL    HW211727   3.080   3.578   1.494
 3881SOL     OW11728   4.219   3.609   1.326
 3881SOL    HW111729   4.126   3.601   1.303
 3881SOL    HW211730   4.219   3.623   1.421
 3882SOL     OW11731   3.710   2.606   1.764
 3882SOL    HW111732   3.624   2.615   1.722
 3882SOL    HW211733   3.707   2.520   1.805
 3883SOL     OW11734   3.222   4.594   1.476
 3883SOL    HW111735   3.313   4.568   1.458
 3883SOL    HW211736   3.214   4.681   1.438
 3884SOL     OW11737   4.761   3.531   0.480
 3884SOL    HW111738   4.673   3.494   0.483
 3884SOL    HW211739   4.785   3.530   0.387
 3885SOL     OW11740   2.854   3.796   1.409
 3885SOL    HW111741   2.905   3.836   1.480
 3885SOL    HW211742   2.769   3.840   1.414
 3886SOL     OW11743   3.421   4.399   0.769
 3886SOL    HW111744   3.500   4.453   0.776
 3886SOL    HW211745   3.400   4.374   0.859
 3887SOL     OW11746   3.726   2.713   2.454
 3887SOL    HW111747   3.724   2.655   2.530
 3887SOL    HW211748   3.810   2.759   2.461
 3888SOL     OW11749   4.387   4.094   0.901
 3888SOL    HW111750   4.411   4.020   0.956
 3888SOL    HW211751   4.425   4.073   0.815
 3889SOL     OW11752   3.409   4.036   0.363
 3889SOL    HW111753   3.337   3.981   0.393
 3889SOL    HW211754   3.445   4.074   0.444
 3890SOL     OW11755   4.152   2.891   0.750
 3890SOL    HW111756   4.119   2.811   0.708
 3890SOL    HW211757   4.076   2.949   0.753
 3891SOL     OW11758   4.787   4.192   2.422
 3891SOL    HW111759   4.709   4.228   2.466
 3891SOL    HW211760   4.775   4.216   2.330
 3892SOL     OW11761   3.232   3.408   0.298
 3892SOL    HW111762   3.144   3.439   0.316
 3892SOL    HW211763   3.264   3.465   0.228
 3893SOL     OW11764   3.823   4.520   0.428
 3893SOL    HW111765   3.811   4.608   0.393
 3893SOL    HW211766   3.803   4.528   0.521
 3894SOL     OW11767   3.597   4.866   0.888
 3894SOL    HW111768   3.506   4.895   0.888
 3894SOL    HW211769   3.637   4.912   0.814
 3895SOL     OW11770   2.556   4.917   0.614
 3895SOL    HW111771   2.481   4.875   0.655
 3895SOL    HW211772   2.553   4.890   0.523
 3896SOL     OW11773   2.734   2.525   0.808
 3896SOL    HW111774   2.672   2.539   0.880
 3896SOL    HW211775   2.682   2.482   0.740
 3897SOL     OW11776   3.721   2.887   1.788
 3897SOL    HW111777   3.687   2.905   1.700
 3897SOL    HW211778   3.746   2.795   1.786
 3898SOL     OW11779   2.987   3.722   0.834
 3898SOL    HW111780   2.999   3.664   0.760
 3898SOL    HW211781   3.049   3.690   0.900
 3899SOL     OW11782   2.623   4.419   2.376
 3899SOL    HW111783   2.597   4.485   2.440
 3899SOL    HW211784   2.573   4.441   2.298
 3900SOL     OW11785   3.075   2.562   1.802
 3900SOL    HW111786   3.113   2.530   1.720
 3900SOL    HW211787   2.981   2.559   1.787
 3901SOL     OW11788   3.471   4.772   1.216
 3901SOL    HW111789   3.432   4.724   1.143
 3901SOL    HW211790   3.559   4.792   1.186
 3902SOL     OW11791   4.955   3.978   0.961
 3902SOL    HW111792   4.970   3.982   1.055
 3902SOL    HW211793   4.921   4.064   0.938
 3903SOL     OW11794   2.616   3.102   2.023
 3903SOL    HW111795   2.609   3.074   1.931
 3903SOL    HW211796   2.704   3.140   2.030
 3904SOL     OW11797   4.294   3.638   1.608
 3904SOL    HW111798   4.385   3.667   1.623
 3904SOL    HW211799   4.291   3.551   1.647
 3905SOL     OW11800   4.034   3.467   0.381
 3905SOL    HW111801   4.054   3.560   0.371
 3905SOL    HW211802   4.087   3.439   0.455
 3906SOL     OW11803   2.762   2.582   1.137
 3906SOL    HW111804   2.783   2.654   1.077
 3906SOL    HW211805   2.685   2.540   1.097
 3907SOL     OW11806   2.741   3.034   0.604
 3907SOL    HW111807   2.805   3.016   0.673
 3907SOL    HW211808   2.778   3.109   0.556
 3908SOL     OW11809   2.889   3.334   0.196
 3908SOL    HW111810   2.941   3.291   0.128
 3908SOL    HW211811   2.816   3.373   0.148
 3909SOL     OW11812   3.902   4.406   2.479
 3909SOL    HW111813   3.919   4.338   2.544
 3909SOL    HW211814   3.817   4.441   2.503
 3910SOL     OW11815   3.760   3.496   1.740
 3910SOL    HW111816   3.846   3.467   1.771
 3910SOL    HW211817   3.780   3.558   1.670
 3911SOL     OW11818   4.493   2.748   0.307
 3911SOL    HW111819   4.530   2.766   0.221
 3911SOL    HW211820   4.473   2.834   0.344
 3912SOL     OW11821   3.496   4.148   0.596
 3912SOL    HW111822   3.451   4.229   0.621
 3912SOL    HW211823   3.566   4.139   0.660
 3913SOL     OW11824   3.478   4.395   1.121
 3913SOL    HW111825   3.428   4.472   1.094
 3913SOL    HW211826   3.567   4.413   1.090
 3914SOL     OW11827   3.452   4.423   1.405
 3914SOL    HW111828   3.405   4.342   1.426
 3914SOL    HW211829   3.473   4.415   1.312
 3915SOL     OW11830   2.899   3.949   1.173
 3915SOL    HW111831   2.846   3.879   1.212
 3915SOL    HW211832   2.980   3.949   1.224
 3916SOL     OW11833   4.369   2.642   2.014
 3916SOL    HW111834   4.329   2.646   2.101
 3916SOL    HW211835   4.316   2.579   1.966
 3917SOL     OW11836   4.492   4.080   0.624
 3917SOL    HW111837   4.401   4.094   0.600
 3917SOL    HW211838   4.538   4.072   0.540
 3918SOL     OW11839   3.227   3.854   1.031
 3918SOL    HW111840   3.163   3.845   1.102
 3918SOL    HW211841   3.212   3.777   0.976
 3919SOL     OW11842   4.931   3.748   0.554
 3919SOL    HW111843   4.888   3.665   0.532
 3919SOL    HW211844   4.860   3.807   0.579
 3920SOL     OW11845   2.811   3.795   0.087
 3920SOL    HW111846   2.872   3.770   0.157
 3920SOL    HW211847   2.822   3.890   0.079
 3921SOL     OW11848   4.536   2.948   1.722
 3921SOL    HW111849   4.475   2.877   1.741
 3921SOL    HW211850   4.511   2.979   1.634
 3922SOL     OW11851   2.895   2.814   0.352
 3922SOL    HW111852   2.901   2.724   0.322
 3922SOL    HW211853   2.971   2.824   0.410
 3923SOL     OW11854   4.158   4.467   0.393
 3923SOL    HW111855   4.178   4.522   0.469
 3923SOL    HW211856   4.062   4.472   0.385
 3924SOL     OW11857   3.627   4.535   2.441
 3924SOL    HW111858   3.560   4.475   2.474
 3924SOL    HW211859   3.620   4.528   2.346
 3925SOL     OW11860   3.848   2.673   1.115
 3925SOL    HW111861   3.938   2.693   1.140
 3925SOL    HW211862   3.841   2.706   1.025
 3926SOL     OW11863   3.043   2.565   1.092
 3926SOL    HW111864   2.973   2.530   1.148
 3926SOL    HW211865   3.026   2.526   1.006
 3927SOL     OW11866   4.686   4.491   1.545
 3927SOL    HW111867   4.610   4.455   1.500
 3927SOL    HW211868   4.755   4.492   1.478
 3928SOL     OW11869   4.623   4.837   1.028
 3928SOL    HW111870   4.666   4.917   0.998
 3928SOL    HW211871   4.648   4.829   1.120
 3929SOL     OW11872   3.522   3.368   2.482
 3929SOL    HW111873   3.494   3.448   2.527
 3929SOL    HW211874   3.472   3.298   2.524
 3930SOL     OW11875   4.960   3.880   1.939
 3930SOL    HW111876   5.035   3.842   1.985
 3930SOL    HW211877   4.959   3.836   1.854
 3931SOL     OW11878   3.348   3.773   1.856
 3931SOL    HW111879   3.289   3.842   1.826
 3931SOL    HW211880   3.436   3.808   1.838
 3932SOL     OW11881   3.010   2.823   2.088
 3932SOL    HW111882   2.956   2.744   2.086
 3932SOL    HW211883   3.078   2.804   2.153
 3933SOL     OW11884   3.383   3.352   0.512
 3933SOL    HW111885   3.350   3.366   0.423
 3933SOL    HW211886   3.449   3.284   0.502
 3934SOL     OW11887   3.137   3.311   1.302
 3934SOL    HW111888   3.048   3.291   1.272
 3934SOL    HW211889   3.127   3.391   1.353
 3935SOL     OW11890   2.874   4.184   0.464
 3935SOL    HW111891   2.964   4.216   0.459
 3935SOL    HW211892   2.874   4.123   0.538
 3936SOL     OW11893   3.364   3.647   1.308
 3936SOL    HW111894   3.441   3.635   1.362
 3936SOL    HW211895   3.395   3.696   1.232
 3937SOL     OW11896   4.581   4.905   1.374
 3937SOL    HW111897   4.577   4.889   1.468
 3937SOL    HW211898   4.528   4.835   1.336
 3938SOL     OW11899   3.398   2.693   1.713
 3938SOL    HW111900   3.345   2.740   1.777
 3938SOL    HW211901   3.385   2.742   1.632
 3939SOL     OW11902   4.867   3.873   1.677
 3939SOL    HW111903   4.808   3.948   1.664
 3939SOL    HW211904   4.809   3.797   1.678
 3940SOL     OW11905   3.425   4.015   0.936
 3940SOL    HW111906   3.340   3.998   0.976
 3940SOL    HW211907   3.480   4.046   1.008
 3941SOL     OW11908   4.465   3.839   0.979
 3941SOL    HW111909   4.485   3.841   1.073
 3941SOL    HW211910   4.500   3.756   0.949
 3942SOL     OW11911   3.481   3.365   2.207
 3942SOL    HW111912   3.385   3.370   2.202
 3942SOL    HW211913   3.500   3.373   2.301
 3943SOL     OW11914   3.889   4.871   0.549
 3943SOL    HW111915   3.958   4.876   0.483
 3943SOL    HW211916   3.840   4.792   0.526
 3944SOL     OW11917   2.822   4.549   0.153
 3944SOL    HW111918   2.800   4.456   0.158
 3944SOL    HW211919   2.813   4.580   0.244
 3945SOL     OW11920   2.779   4.170   0.808
 3945SOL    HW111921   2.777   4.091   0.753
 3945SOL    HW211922   2.871   4.184   0.828
 3946SOL     OW11923   2.662   2.773   0.575
 3946SOL    HW111924   2.718   2.850   0.583
 3946SOL    HW211925   2.723   2.700   0.568
 3947SOL     OW11926   3.058   4.154   2.164
 3947SOL    HW111927   3.100   4.171   2.248
 3947SOL    HW211928   2.969   4.186   2.175
 3948SOL     OW11929   4.081   3.814   1.672
 3948SOL    HW111930   4.028   3.769   1.737
 3948SOL    HW211931   4.158   3.759   1.661
 3949SOL     OW11932   3.138   3.707   2.214
 3949SOL    HW111933   3.100   3.653   2.284
 3949SOL    HW211934   3.133   3.652   2.136
 3950SOL     OW11935   2.724   3.349   0.527
 3950SOL    HW111936   2.752   3.366   0.617
 3950SOL    HW211937   2.791   3.291   0.492
 3951SOL     OW11938   3.962   3.918   1.094
 3951SOL    HW111939   3.902   3.856   1.136
 3951SOL    HW211940   4.035   3.863   1.063
 3952SOL     OW11941   3.430   4.883   1.713
 3952SOL    HW111942   3.412   4.866   1.621
 3952SOL    HW211943   3.433   4.978   1.719
 3953SOL     OW11944   2.813   4.249   2.213
 3953SOL    HW111945   2.763   4.224   2.135
 3953SOL    HW211946   2.751   4.296   2.268
 3954SOL     OW11947   2.528   3.653   2.301
 3954SOL    HW111948   2.592   3.656   2.230
 3954SOL    HW211949   2.462   3.591   2.271
 3955SOL     OW11950   2.740   4.018   2.000
 3955SOL    HW111951   2.744   3.976   1.914
 3955SOL    HW211952   2.689   4.097   1.986
 3956SOL     OW11953   4.330   3.242   2.292
 3956SOL    HW111954   4.397   3.213   2.229
 3956SOL    HW211955   4.274   3.165   2.304
 3957SOL     OW11956   4.082   4.097   2.243
 3957SOL    HW111957   4.146   4.133   2.181
 3957SOL    HW211958   4.110   4.130   2.328
 3958SOL     OW11959   3.821   3.955   1.469
 3958SOL    HW111960   3.754   4.023   1.481
 3958SOL    HW211961   3.856   3.942   1.557
 3959SOL     OW11962   2.779   4.372   1.597
 3959SOL    HW111963   2.837   4.333   1.663
 3959SOL    HW211964   2.736   4.297   1.556
 3960SOL     OW11965   3.996   3.857   2.137
 3960SOL    HW111966   4.044   3.934   2.166
 3960SOL    HW211967   3.982   3.806   2.217
 3961SOL     OW11968   3.793   4.185   2.004
 3961SOL    HW111969   3.747   4.262   1.971
 3961SOL    HW211970   3.874   4.181   1.953
 3962SOL     OW11971   3.749   2.883   1.506
 3962SOL    HW111972   3.673   2.826   1.488
 3962SOL    HW211973   3.747   2.947   1.435
 3963SOL     OW11974   4.610   4.633   0.818
 3963SOL    HW111975   4.603   4.702   0.884
 3963SOL    HW211976   4.521   4.621   0.786
 3964SOL     OW11977   4.395   4.448   1.613
 3964SOL    HW111978   4.319   4.421   1.665
 3964SOL    HW211979   4.450   4.370   1.609
 3965SOL     OW11980   4.151   4.268   0.823
 3965SOL    HW111981   4.229   4.212   0.831
 3965SOL    HW211982   4.086   4.213   0.780
 3966SOL     OW11983   2.558   3.599   0.832
 3966SOL    HW111984   2.628   3.626   0.890
 3966SOL    HW211985   2.585   3.630   0.745
 3967SOL     OW11986   3.110   3.766   1.266
 3967SOL    HW111987   3.183   3.729   1.316
 3967SOL    HW211988   3.035   3.710   1.287
 3968SOL     OW11989   4.064   3.421   2.381
 3968SOL    HW111990   4.118   3.413   2.302
 3968SOL    HW211991   3.994   3.356   2.369
 3969SOL     OW11992   3.531   3.113   1.834
 3969SOL    HW111993   3.538   3.170   1.758
 3969SOL    HW211994   3.565   3.029   1.803
 3970SOL     OW11995   2.927   3.050   1.134
 3970SOL    HW111996   2.994   3.075   1.070
 3970SOL    HW211997   2.845   3.080   1.095
 3971SOL     OW11998   3.202   3.825   0.428
 3971SOL    HW111999   3.246   3.750   0.467
 3971SOL    HW212000   3.171   3.876   0.503
 3972SOL     OW12001   4.836   4.870   1.288
 3972SOL    HW112002   4.885   4.810   1.344
 3972SOL    HW212003   4.752   4.882   1.334
 3973SOL     OW12004   3.586   4.027   2.020
 3973SOL    HW112005   3.656   4.090   2.009
 3973SOL    HW212006   3.616   3.968   2.090
 3974SOL     OW12007   4.633   4.855   2.014
 3974SOL    HW112008   4.602   4.774   2.055
 3974SOL    HW212009   4.678   4.901   2.085
 3975SOL     OW12010   3.631   3.191   0.591
 3975SOL    HW112011   3.687   3.265   0.568
 3975SOL    HW212012   3.656   3.122   0.529
 3976SOL     OW12013   3.679   3.180   0.242
 3976SOL    HW112014   3.585   3.173   0.259
 3976SOL    HW212015   3.709   3.250   0.300
 3977SOL     OW12016   4.336   3.184   1.332
 3977SOL    HW112017   4.397   3.241   1.285
 3977SOL    HW212018   4.390   3.111   1.362
 3978SOL     OW12019   3.635   3.502   1.117
 3978SOL    HW112020   3.595   3.580   1.155
 3978SOL    HW212021   3.606   3.430   1.173
 3979SOL     OW12022   3.533   2.756   2.289
 3979SOL    HW112023   3.573   2.823   2.233
 3979SOL    HW212024   3.602   2.730   2.349
 3980SOL     OW12025   4.698   4.007   1.988
 3980SOL    HW112026   4.775   3.987   1.935
 3980SOL    HW212027   4.647   3.925   1.988
 3981SOL     OW12028   2.648   3.185   0.233
 3981SOL    HW112029   2.568   3.207   0.185
 3981SOL    HW212030   2.702   3.264   0.226
 3982SOL     OW12031   2.586   3.799   1.157
 3982SOL    HW112032   2.627   3.815   1.071
 3982SOL    HW212033   2.621   3.714   1.184
 3983SOL     OW12034   4.844   2.878   1.206
 3983SOL    HW112035   4.773   2.872   1.143
 3983SOL    HW212036   4.851   2.790   1.243
 3984SOL     OW12037   3.622   3.855   1.793
 3984SOL    HW112038   3.701   3.809   1.820
 3984SOL    HW212039   3.620   3.933   1.848
 3985SOL     OW12040   3.895   3.464   1.015
 3985SOL    HW112041   3.894   3.546   0.966
 3985SOL    HW212042   3.804   3.453   1.044
 3986SOL     OW12043   2.775   3.174   1.401
 3986SOL    HW112044   2.718   3.222   1.342
 3986SOL    HW212045   2.815   3.106   1.346
 3987SOL     OW12046   3.867   2.727   0.626
 3987SOL    HW112047   3.888   2.784   0.551
 3987SOL    HW212048   3.923   2.651   0.615
 3988SOL     OW12049   2.886   3.031   0.162
 3988SOL    HW112050   2.876   2.965   0.231
 3988SOL    HW212051   2.809   3.087   0.173
 3989SOL     OW12052   3.749   4.615   1.233
 3989SOL    HW112053   3.759   4.640   1.141
 3989SOL    HW212054   3.780   4.692   1.282
 3990SOL     OW12055   2.927   2.576   0.081
 3990SOL    HW112056   2.967   2.564  -0.006
 3990SOL    HW212057   3.001   2.593   0.139
 3991SOL     OW12058   3.568   3.798   2.260
 3991SOL    HW112059   3.481   3.837   2.250
 3991SOL    HW212060   3.569   3.724   2.200
 3992SOL     OW12061   2.714   4.138   1.064
 3992SOL    HW112062   2.765   4.059   1.083
 3992SOL    HW212063   2.716   4.145   0.968
 3993SOL     OW12064   3.777   3.375   0.424
 3993SOL    HW112065   3.868   3.397   0.407
 3993SOL    HW212066   3.727   3.449   0.389
 3994SOL     OW12067   4.210   4.467   2.443
 3994SOL    HW112068   4.231   4.375   2.459
 3994SOL    HW212069   4.120   4.477   2.473
 3995SOL     OW12070   4.422   4.816   0.345
 3995SOL    HW112071   4.405   4.728   0.310
 3995SOL    HW212072   4.429   4.872   0.267
 3996SOL     OW12073   4.743   4.093   1.162
 3996SOL    HW112074   4.649   4.106   1.154
 3996SOL    HW212075   4.780   4.138   1.086
 3997SOL     OW12076   3.558   3.283   1.322
 3997SOL    HW112077   3.509   3.303   1.402
 3997SOL    HW212078   3.650   3.295   1.347
 3998SOL     OW12079   3.441   4.938   2.040
 3998SOL    HW112080   3.491   4.940   1.959
 3998SOL    HW212081   3.371   4.875   2.022
 3999SOL     OW12082   2.793   2.801   0.995
 3999SOL    HW112083   2.733   2.872   1.018
 3999SOL    HW212084   2.841   2.834   0.919
 4000SOL     OW12085   4.419   4.373   1.301
 4000SOL    HW112086   4.442   4.333   1.217
 4000SOL    HW212087   4.324   4.364   1.307
 4001SOL     OW12088   2.764   2.891   1.306
 4001SOL    HW112089   2.784   2.902   1.213
 4001SOL    HW212090   2.849   2.880   1.348
 4002SOL     OW12091   4.042   4.955   0.311
 4002SOL    HW112092   4.088   5.036   0.332
 4002SOL    HW212093   4.108   4.899   0.270
 4003SOL     OW12094   3.142   4.944   0.639
 4003SOL    HW112095   3.234   4.962   0.623
 4003SOL    HW212096   3.112   4.898   0.560
 4004SOL     OW12097   3.906   3.208   2.268
 4004SOL    HW112098   3.834   3.206   2.205
 4004SOL    HW212099   3.869   3.170   2.348
 4005SOL     OW12100   2.633   4.492   1.837
 4005SOL    HW112101   2.564   4.542   1.793
 4005SOL    HW212102   2.664   4.430   1.771
 4006SOL     OW12103   4.808   2.842   0.552
 4006SOL    HW112104   4.806   2.794   0.470
 4006SOL    HW212105   4.851   2.782   0.613
 4007SOL     OW12106   2.671   3.458   0.111
 4007SOL    HW112107   2.653   3.541   0.153
 4007SOL    HW212108   2.611   3.454   0.037
 4008SOL     OW12109   4.469   4.680   1.244
 4008SOL    HW112110   4.423   4.672   1.328
 4008SOL    HW212111   4.403   4.658   1.178
 4009SOL     OW12112   4.937   4.064   2.152
 4009SOL    HW112113   5.029   4.049   2.173
 4009SOL    HW212114   4.909   3.985   2.106
 4010SOL     OW12115   2.533   2.498   1.002
 4010SOL    HW112116   2.539   2.404   0.981
 4010SOL    HW212117   2.441   2.519   0.987
 4011SOL     OW12118   3.241   4.267   1.052
 4011SOL    HW112119   3.336   4.261   1.066
 4011SOL    HW212120   3.208   4.308   1.132
 4012SOL     OW12121   4.456   4.073   1.203
 4012SOL    HW112122   4.471   3.999   1.262
 4012SOL    HW212123   4.361   4.080   1.197
 4013SOL     OW12124   4.641   2.715   2.094
 4013SOL    HW112125   4.565   2.679   2.048
 4013SOL    HW212126   4.688   2.639   2.128
 4014SOL     OW12127   4.584   2.671   1.475
 4014SOL    HW112128   4.549   2.594   1.429
 4014SOL    HW212129   4.675   2.677   1.446
 4015SOL     OW12130   3.362   4.608   1.001
 4015SOL    HW112131   3.271   4.617   1.029
 4015SOL    HW212132   3.361   4.632   0.909
 4016SOL     OW12133   4.645   2.838   1.027
 4016SOL    HW112134   4.567   2.803   1.070
 4016SOL    HW212135   4.617   2.924   0.994
 4017SOL     OW12136   4.932   4.467   2.130
 4017SOL    HW112137   4.921   4.549   2.179
 4017SOL    HW212138   4.924   4.492   2.038
 4018SOL     OW12139   3.383   2.860   1.488
 4018SOL    HW112140   3.343   2.943   1.465
 4018SOL    HW212141   3.448   2.844   1.419
 4019SOL     OW12142   4.557   3.851   0.358
 4019SOL    HW112143   4.497   3.781   0.335
 4019SOL    HW212144   4.615   3.813   0.423
 4020SOL     OW12145   3.422   3.370   0.950
 4020SOL    HW112146   3.418   3.283   0.991
 4020SOL    HW212147   3.467   3.355   0.867
 4021SOL     OW12148   4.830   3.506   2.144
 4021SOL    HW112149   4.838   3.464   2.058
 4021SOL    HW212150   4.740   3.537   2.148
 4022SOL     OW12151   4.129   4.872   1.050
 4022SOL    HW112152   4.106   4.916   1.132
 4022SOL    HW212153   4.045   4.862   1.004
 4023SOL     OW12154   3.217   3.588   1.030
 4023SOL    HW112155   3.273   3.524   0.985
 4023SOL    HW212156   3.251   3.591   1.119
 4024SOL     OW12157   3.062   4.709   1.060
 4024SOL    HW112158   3.057   4.757   0.977
 4024SOL    HW212159   2.978   4.662   1.065
 4025SOL     OW12160   3.640   3.148   2.076
 4025SOL    HW112161   3.597   3.224   2.114
 4025SOL    HW212162   3.588   3.127   1.999
 4026SOL     OW12163   3.154   3.056   0.236
 4026SOL    HW112164   3.158   3.082   0.328
 4026SOL    HW212165   3.070   3.011   0.227
 4027SOL     OW12166   3.711   4.856   1.347
 4027SOL    HW112167   3.772   4.906   1.402
 4027SOL    HW212168   3.650   4.815   1.410
 4028SOL     OW12169   4.145   3.155   1.743
 4028SOL    HW112170   4.052   3.165   1.766
 4028SOL    HW212171   4.184   3.113   1.819
 4029SOL     OW12172   3.815   4.633   0.971
 4029SOL    HW112173   3.877   4.596   0.907
 4029SOL    HW212174   3.821   4.727   0.958
 4030SOL     OW12175   3.532   3.595   0.856
 4030SOL    HW112176   3.627   3.605   0.851
 4030SOL    HW212177   3.519   3.521   0.914
 4031SOL     OW12178   4.530   3.366   0.430
 4031SOL    HW112179   4.445   3.347   0.390
 4031SOL    HW212180   4.582   3.287   0.413
 4032SOL     OW12181   4.173   4.304   1.225
 4032SOL    HW112182   4.178   4.209   1.223
 4032SOL    HW212183   4.083   4.323   1.251
 4033SOL     OW12184   4.295   2.775   1.454
 4033SOL    HW112185   4.353   2.747   1.525
 4033SOL    HW212186   4.210   2.788   1.496
 4034SOL     OW12187   4.313   3.324   1.584
 4034SOL    HW112188   4.292   3.318   1.491
 4034SOL    HW212189   4.246   3.271   1.627
 4035SOL     OW12190   2.913   3.232   2.379
 4035SOL    HW112191   2.844   3.263   2.320
 4035SOL    HW212192   2.890   3.141   2.397
 4036SOL     OW12193   3.495   2.896   0.877
 4036SOL    HW112194   3.434   2.852   0.936
 4036SOL    HW212195   3.476   2.859   0.791
 4037SOL     OW12196   2.709   3.550   1.244
 4037SOL    HW112197   2.679   3.460   1.260
 4037SOL    HW212198   2.712   3.590   1.331
 4038SOL     OW12199   4.457   4.884   1.633
 4038SOL    HW112200   4.535   4.903   1.685
 4038SOL    HW212201   4.388   4.936   1.674
 4039SOL     OW12202   4.724   3.077   0.881
 4039SOL    HW112203   4.817   3.076   0.858
 4039SOL    HW212204   4.696   3.167   0.862
 4040SOL     OW12205   4.879   2.839   2.443
 4040SOL    HW112206   4.905   2.748   2.459
 4040SOL    HW212207   4.923   2.863   2.361
 4041SOL     OW12208   3.401   3.183   0.284
 4041SOL    HW112209   3.338   3.256   0.287
 4041SOL    HW212210   3.365   3.123   0.219
 4042SOL     OW12211   4.282   4.220   2.414
 4042SOL    HW112212   4.318   4.137   2.445
 4042SOL    HW212213   4.339   4.245   2.342
 4043SOL     OW12214   4.711   3.604   1.720
 4043SOL    HW112215   4.769   3.532   1.745
 4043SOL    HW212216   4.623   3.566   1.725
 4044SOL     OW12217   4.535   3.147   2.137
 4044SOL    HW112218   4.535   3.084   2.209
 4044SOL    HW212219   4.603   3.116   2.077
 4045SOL     OW12220   3.178   3.191   1.746
 4045SOL    HW112221   3.235   3.146   1.809
 4045SOL    HW212222   3.187   3.284   1.768
 4046SOL     OW12223   4.296   4.698   1.914
 4046SOL    HW112224   4.385   4.668   1.932
 4046SOL    HW212225   4.299   4.732   1.825
 4047SOL     OW12226   4.778   3.350   0.832
 4047SOL    HW112227   4.832   3.329   0.756
 4047SOL    HW212228   4.688   3.340   0.802
 4048SOL     OW12229   4.219   2.495   1.784
 4048SOL    HW112230   4.184   2.453   1.862
 4048SOL    HW212231   4.147   2.547   1.750
 4049SOL     OW12232   4.848   2.636   1.378
 4049SOL    HW112233   4.942   2.648   1.387
 4049SOL    HW212234   4.838   2.559   1.323
 4050SOL     OW12235   3.742   4.373   1.020
 4050SOL    HW112236   3.799   4.321   1.077
 4050SOL    HW212237   3.770   4.463   1.034
 4051SOL     OW12238   4.655   4.493   1.158
 4051SOL    HW112239   4.604   4.553   1.213
 4051SOL    HW212240   4.589   4.448   1.104
 4052SOL     OW12241   4.734   2.500   2.218
 4052SOL    HW112242   4.807   2.543   2.262
 4052SOL    HW212243   4.703   2.434   2.280
 4053SOL     OW12244   4.619   2.887   2.331
 4053SOL    HW112245   4.701   2.859   2.371
 4053SOL    HW212246   4.618   2.843   2.246
 4054SOL     OW12247   3.598   4.125   1.147
 4054SOL    HW112248   3.548   4.204   1.169
 4054SOL    HW212249   3.687   4.144   1.178
 4055SOL     OW12250   3.952   3.095   0.526
 4055SOL    HW112251   4.035   3.142   0.522
 4055SOL    HW212252   3.927   3.100   0.618
 4056SOL     OW12253   2.846   4.275   0.199
 4056SOL    HW112254   2.857   4.216   0.124
 4056SOL    HW212255   2.841   4.218   0.275
 4057SOL     OW12256   2.498   4.690   1.425
 4057SOL    HW112257   2.454   4.608   1.403
 4057SOL    HW212258   2.574   4.692   1.367
 4058SOL     OW12259   4.595   2.937   0.678
 4058SOL    HW112260   4.665   2.903   0.624
 4058SOL    HW212261   4.639   2.979   0.752
 4059SOL     OW12262   3.112   4.409   1.673
 4059SOL    HW112263   3.084   4.488   1.626
 4059SOL    HW212264   3.178   4.440   1.736
 4060SOL     OW12265   4.690   4.794   2.421
 4060SOL    HW112266   4.749   4.809   2.495
 4060SOL    HW212267   4.616   4.747   2.459
 4061SOL     OW12268   3.582   3.605   2.053
 4061SOL    HW112269   3.570   3.612   1.958
 4061SOL    HW212270   3.536   3.524   2.077
 4062SOL     OW12271   2.543   4.643   0.046
 4062SOL    HW112272   2.488   4.706   0.092
 4062SOL    HW212273   2.624   4.641   0.097
 4063SOL     OW12274   3.580   4.444   2.160
 4063SOL    HW112275   3.573   4.449   2.065
 4063SOL    HW212276   3.548   4.357   2.182
 4064SOL     OW12277   3.823   4.070   3.375
 4064SOL    HW112278   3.886   4.040   3.440
 4064SOL    HW212279   3.774   4.139   3.420
 4065SOL     OW12280   4.497   3.801   4.152
 4065SOL    HW112281   4.553   3.774   4.079
 4065SOL    HW212282   4.545   3.775   4.230
 4066SOL     OW12283   4.715   3.133   4.149
 4066SOL    HW112284   4.645   3.076   4.182
 4066SOL    HW212285   4.768   3.075   4.094
 4067SOL     OW12286   3.132   4.823   2.864
 4067SOL    HW112287   3.140   4.914   2.835
 4067SOL    HW212288   3.196   4.776   2.811
 4068SOL     OW12289   4.438   3.789   3.767
 4068SOL    HW112290   4.377   3.719   3.788
 4068SOL    HW212291   4.508   3.781   3.832
 4069SOL     OW12292   4.358   4.001   4.014
 4069SOL    HW112293   4.407   3.928   4.050
 4069SOL    HW212294   4.301   4.030   4.086
 4070SOL     OW12295   2.836   4.721   4.467
 4070SOL    HW112296   2.849   4.660   4.540
 4070SOL    HW212297   2.779   4.674   4.407
 4071SOL     OW12298   2.808   4.955   4.323
 4071SOL    HW112299   2.714   4.966   4.310
 4071SOL    HW212300   2.816   4.871   4.370
 4072SOL     OW12301   4.286   4.216   4.340
 4072SOL    HW112302   4.232   4.188   4.267
 4072SOL    HW212303   4.243   4.295   4.373
 4073SOL     OW12304   3.884   4.162   3.675
 4073SOL    HW112305   3.931   4.174   3.758
 4073SOL    HW212306   3.898   4.070   3.653
 4074SOL     OW12307   4.247   4.611   3.097
 4074SOL    HW112308   4.290   4.696   3.099
 4074SOL    HW212309   4.318   4.548   3.110
 4075SOL     OW12310   2.874   3.421   3.264
 4075SOL    HW112311   2.942   3.472   3.221
 4075SOL    HW212312   2.865   3.463   3.350
 4076SOL     OW12313   4.200   3.210   2.972
 4076SOL    HW112314   4.196   3.298   3.009
 4076SOL    HW212315   4.214   3.224   2.879
 4077SOL     OW12316   4.102   2.762   3.606
 4077SOL    HW112317   4.119   2.852   3.636
 4077SOL    HW212318   4.188   2.731   3.577
 4078SOL     OW12319   4.376   2.508   3.546
 4078SOL    HW112320   4.303   2.461   3.586
 4078SOL    HW212321   4.441   2.441   3.528
 4079SOL     OW12322   4.103   2.509   3.810
 4079SOL    HW112323   4.146   2.594   3.820
 4079SOL    HW212324   4.030   2.512   3.873
 4080SOL     OW12325   3.098   4.462   2.639
 4080SOL    HW112326   3.006   4.481   2.658
 4080SOL    HW212327   3.097   4.371   2.610
 4081SOL     OW12328   4.817   3.747   3.379
 4081SOL    HW112329   4.883   3.684   3.350
 4081SOL    HW212330   4.868   3.821   3.411
 4082SOL     OW12331   4.714   3.135   2.887
 4082SOL    HW112332   4.727   3.067   2.953
 4082SOL    HW212333   4.791   3.128   2.831
 4083SOL     OW12334   3.190   3.990   3.159
 4083SOL    HW112335   3.160   4.027   3.242
 4083SOL    HW212336   3.285   3.985   3.168
 4084SOL     OW12337   4.469   4.450   3.152
 4084SOL    HW112338   4.565   4.452   3.149
 4084SOL    HW212339   4.445   4.370   3.106
 4085SOL     OW12340   2.966   4.242   3.896
 4085SOL    HW112341   2.888   4.216   3.847
 4085SOL    HW212342   2.932   4.288   3.973
 4086SOL     OW12343   3.051   3.214   3.265
 4086SOL    HW112344   3.104   3.231   3.343
 4086SOL    HW212345   2.992   3.289   3.260
 4087SOL     OW12346   3.417   4.920   3.922
 4087SOL    HW112347   3.434   4.858   3.851
 4087SOL    HW212348   3.345   4.975   3.890
 4088SOL     OW12349   2.601   4.320   2.944
 4088SOL    HW112350   2.537   4.256   2.913
 4088SOL    HW212351   2.685   4.277   2.931
 4089SOL     OW12352   3.627   4.629   3.228
 4089SOL    HW112353   3.597   4.702   3.281
 4089SOL    HW212354   3.682   4.577   3.288
 4090SOL     OW12355   2.621   3.887   3.220
 4090SOL    HW112356   2.560   3.927   3.283
 4090SOL    HW212357   2.564   3.840   3.159
 4091SOL     OW12358   3.468   4.325   2.508
 4091SOL    HW112359   3.489   4.253   2.568
 4091SOL    HW212360   3.452   4.282   2.424
 4092SOL     OW12361   4.512   3.554   4.607
 4092SOL    HW112362   4.463   3.543   4.688
 4092SOL    HW212363   4.481   3.485   4.550
 4093SOL     OW12364   4.448   3.469   4.278
 4093SOL    HW112365   4.411   3.414   4.209
 4093SOL    HW212366   4.422   3.426   4.360
 4094SOL     OW12367   4.756   4.393   3.057
 4094SOL    HW112368   4.836   4.427   3.097
 4094SOL    HW212369   4.777   4.303   3.032
 4095SOL     OW12370   4.333   2.795   4.291
 4095SOL    HW112371   4.244   2.761   4.288
 4095SOL    HW212372   4.370   2.758   4.371
 4096SOL     OW12373   3.749   4.854   4.365
 4096SOL    HW112374   3.687   4.791   4.328
 4096SOL    HW212375   3.814   4.801   4.411
 4097SOL     OW12376   4.260   3.417   3.634
 4097SOL    HW112377   4.233   3.497   3.678
 4097SOL    HW212378   4.355   3.414   3.647
 4098SOL     OW12379   4.059   3.248   3.546
 4098SOL    HW112380   4.112   3.311   3.596
 4098SOL    HW212381   3.995   3.303   3.499
 4099SOL     OW12382   3.365   3.495   4.367
 4099SOL    HW112383   3.306   3.466   4.436
 4099SOL    HW212384   3.352   3.590   4.361
 4100SOL     OW12385   2.835   2.622   4.562
 4100SOL    HW112386   2.831   2.565   4.639
 4100SOL    HW212387   2.853   2.563   4.489
 4101SOL     OW12388   3.708   4.757   2.824
 4101SOL    HW112389   3.671   4.843   2.842
 4101SOL    HW212390   3.681   4.737   2.734
 4102SOL     OW12391   3.312   2.933   2.986
 4102SOL    HW112392   3.350   2.941   2.899
 4102SOL    HW212393   3.268   3.016   3.001
 4103SOL     OW12394   2.923   3.937   3.069
 4103SOL    HW112395   3.001   3.951   3.122
 4103SOL    HW212396   2.894   3.848   3.091
 4104SOL     OW12397   4.942   2.673   3.197
 4104SOL    HW112398   4.958   2.587   3.158
 4104SOL    HW212399   5.024   2.721   3.183
 4105SOL     OW12400   3.995   4.515   3.289
 4105SOL    HW112401   4.023   4.426   3.312
 4105SOL    HW212402   4.072   4.555   3.249
 4106SOL     OW12403   2.753   3.645   3.050
 4106SOL    HW112404   2.667   3.673   3.018
 4106SOL    HW212405   2.764   3.556   3.016
 4107SOL     OW12406   4.424   3.998   2.585
 4107SOL    HW112407   4.418   3.942   2.662
 4107SOL    HW212408   4.461   3.942   2.517
 4108SOL     OW12409   3.344   4.398   2.833
 4108SOL    HW112410   3.410   4.358   2.777
 4108SOL    HW212411   3.394   4.451   2.896
 4109SOL     OW12412   2.852   4.812   2.773
 4109SOL    HW112413   2.934   4.763   2.778
 4109SOL    HW212414   2.835   4.819   2.679
 4110SOL     OW12415   4.638   4.099   2.867
 4110SOL    HW112416   4.603   4.011   2.849
 4110SOL    HW212417   4.722   4.101   2.822
 4111SOL     OW12418   4.040   3.476   4.395
 4111SOL    HW112419   4.124   3.517   4.411
 4111SOL    HW212420   4.042   3.396   4.449
 4112SOL     OW12421   2.550   2.976   4.279
 4112SOL    HW112422   2.566   2.949   4.189
 4112SOL    HW212423   2.465   2.938   4.301
 4113SOL     OW12424   3.935   2.654   4.413
 4113SOL    HW112425   3.938   2.661   4.509
 4113SOL    HW212426   3.860   2.597   4.396
 4114SOL     OW12427   3.764   3.930   3.014
 4114SOL    HW112428   3.722   3.927   3.100
 4114SOL    HW212429   3.826   4.003   3.020
 4115SOL     OW12430   4.397   2.930   2.981
 4115SOL    HW112431   4.329   2.923   3.048
 4115SOL    HW212432   4.479   2.926   3.030
 4116SOL     OW12433   4.328   4.187   4.620
 4116SOL    HW112434   4.385   4.119   4.653
 4116SOL    HW212435   4.332   4.179   4.525
 4117SOL     OW12436   2.652   4.262   4.478
 4117SOL    HW112437   2.575   4.293   4.525
 4117SOL    HW212438   2.689   4.341   4.438
 4118SOL     OW12439   3.345   3.910   4.681
 4118SOL    HW112440   3.322   3.961   4.604
 4118SOL    HW212441   3.300   3.827   4.669
 4119SOL     OW12442   4.749   3.481   3.556
 4119SOL    HW112443   4.737   3.448   3.467
 4119SOL    HW212444   4.830   3.533   3.552
 4120SOL     OW12445   3.124   4.083   2.698
 4120SOL    HW112446   3.097   4.119   2.783
 4120SOL    HW212447   3.219   4.087   2.699
 4121SOL     OW12448   4.880   3.390   4.288
 4121SOL    HW112449   4.901   3.352   4.203
 4121SOL    HW212450   4.866   3.315   4.346
 4122SOL     OW12451   4.516   3.352   3.229
 4122SOL    HW112452   4.438   3.299   3.248
 4122SOL    HW212453   4.511   3.369   3.135
 4123SOL     OW12454   3.562   2.593   3.645
 4123SOL    HW112455   3.646   2.605   3.601
 4123SOL    HW212456   3.575   2.520   3.704
 4124SOL     OW12457   4.138   2.651   3.087
 4124SOL    HW112458   4.147   2.587   3.158
 4124SOL    HW212459   4.205   2.625   3.023
 4125SOL     OW12460   2.519   4.485   3.119
 4125SOL    HW112461   2.549   4.438   3.042
 4125SOL    HW212462   2.594   4.484   3.179
 4126SOL     OW12463   3.422   4.915   3.066
 4126SOL    HW112464   3.448   4.931   2.975
 4126SOL    HW212465   3.502   4.928   3.116
 4127SOL     OW12466   3.694   3.940   2.509
 4127SOL    HW112467   3.666   3.856   2.473
 4127SOL    HW212468   3.731   3.987   2.435
 4128SOL     OW12469   4.275   3.636   4.451
 4128SOL    HW112470   4.215   3.699   4.493
 4128SOL    HW212471   4.361   3.678   4.457
 4129SOL     OW12472   4.136   3.807   2.516
 4129SOL    HW112473   4.070   3.741   2.496
 4129SOL    HW212474   4.163   3.841   2.431
 4130SOL     OW12475   3.040   2.980   4.134
 4130SOL    HW112476   3.054   3.069   4.168
 4130SOL    HW212477   3.084   2.923   4.197
 4131SOL     OW12478   3.769   2.786   3.375
 4131SOL    HW112479   3.787   2.762   3.284
 4131SOL    HW212480   3.694   2.845   3.370
 4132SOL     OW12481   2.901   4.315   4.328
 4132SOL    HW112482   2.988   4.325   4.290
 4132SOL    HW212483   2.913   4.251   4.398
 4133SOL     OW12484   2.733   2.736   4.236
 4133SOL    HW112485   2.758   2.729   4.329
 4133SOL    HW212486   2.741   2.829   4.216
 4134SOL     OW12487   3.043   3.992   4.040
 4134SOL    HW112488   3.012   4.063   3.985
 4134SOL    HW212489   3.110   4.031   4.095
 4135SOL     OW12490   3.136   2.823   4.341
 4135SOL    HW112491   3.093   2.822   4.427
 4135SOL    HW212492   3.133   2.732   4.312
 4136SOL     OW12493   4.217   3.004   4.475
 4136SOL    HW112494   4.213   2.976   4.566
 4136SOL    HW212495   4.274   2.940   4.432
 4137SOL     OW12496   2.859   3.612   4.406
 4137SOL    HW112497   2.801   3.577   4.338
 4137SOL    HW212498   2.928   3.546   4.414
 4138SOL     OW12499   3.547   4.276   4.133
 4138SOL    HW112500   3.568   4.326   4.054
 4138SOL    HW212501   3.545   4.185   4.104
 4139SOL     OW12502   2.975   2.764   3.974
 4139SOL    HW112503   2.996   2.706   4.046
 4139SOL    HW212504   2.997   2.852   4.006
 4140SOL     OW12505   3.336   4.426   4.333
 4140SOL    HW112506   3.329   4.348   4.388
 4140SOL    HW212507   3.368   4.394   4.249
 4141SOL     OW12508   3.905   4.953   3.995
 4141SOL    HW112509   3.896   5.033   4.047
 4141SOL    HW212510   3.884   4.882   4.056
 4142SOL     OW12511   3.230   3.090   3.921
 4142SOL    HW112512   3.211   3.169   3.871
 4142SOL    HW212513   3.156   3.082   3.983
 4143SOL     OW12514   3.327   4.730   3.251
 4143SOL    HW112515   3.364   4.756   3.166
 4143SOL    HW212516   3.238   4.764   3.250
 4144SOL     OW12517   4.853   3.217   4.483
 4144SOL    HW112518   4.940   3.180   4.497
 4144SOL    HW212519   4.802   3.146   4.444
 4145SOL     OW12520   4.360   4.675   3.971
 4145SOL    HW112521   4.382   4.599   4.024
 4145SOL    HW212522   4.386   4.750   4.025
 4146SOL     OW12523   3.116   2.744   3.007
 4146SOL    HW112524   3.193   2.799   3.016
 4146SOL    HW212525   3.098   2.713   3.095
 4147SOL     OW12526   2.555   2.906   4.677
 4147SOL    HW112527   2.548   2.821   4.635
 4147SOL    HW212528   2.581   2.966   4.606
 4148SOL     OW12529   3.549   4.971   2.823
 4148SOL    HW112530   3.599   5.052   2.824
 4148SOL    HW212531   3.509   4.969   2.736
 4149SOL     OW12532   4.831   2.989   2.652
 4149SOL    HW112533   4.864   2.944   2.575
 4149SOL    HW212534   4.864   2.938   2.726
 4150SOL     OW12535   4.706   4.666   2.968
 4150SOL    HW112536   4.790   4.671   2.923
 4150SOL    HW212537   4.701   4.576   3.000
 4151SOL     OW12538   3.885   3.745   4.388
 4151SOL    HW112539   3.922   3.794   4.461
 4151SOL    HW212540   3.902   3.653   4.410
 4152SOL     OW12541   4.827   3.184   3.852
 4152SOL    HW112542   4.862   3.097   3.835
 4152SOL    HW212543   4.744   3.187   3.805
 4153SOL     OW12544   3.819   2.563   2.674
 4153SOL    HW112545   3.851   2.569   2.763
 4153SOL    HW212546   3.876   2.498   2.632
 4154SOL     OW12547   3.096   3.505   4.247
 4154SOL    HW112548   3.158   3.552   4.191
 4154SOL    HW212549   3.011   3.518   4.204
 4155SOL     OW12550   4.108   3.736   2.850
 4155SOL    HW112551   4.025   3.779   2.830
 4155SOL    HW212552   4.171   3.776   2.790
 4156SOL     OW12553   2.913   3.042   4.430
 4156SOL    HW112554   2.915   3.023   4.336
 4156SOL    HW212555   2.943   2.961   4.472
 4157SOL     OW12556   4.588   3.328   4.024
 4157SOL    HW112557   4.496   3.326   4.049
 4157SOL    HW212558   4.630   3.263   4.081
 4158SOL     OW12559   3.598   3.596   3.947
 4158SOL    HW112560   3.677   3.648   3.962
 4158SOL    HW212561   3.620   3.509   3.980
 4159SOL     OW12562   4.820   3.787   3.725
 4159SOL    HW112563   4.911   3.805   3.704
 4159SOL    HW212564   4.773   3.867   3.703
 4160SOL     OW12565   4.929   4.140   3.939
 4160SOL    HW112566   4.860   4.132   3.873
 4160SOL    HW212567   4.881   4.163   4.019
 4161SOL     OW12568   4.572   4.220   4.337
 4161SOL    HW112569   4.599   4.158   4.404
 4161SOL    HW212570   4.476   4.213   4.334
 4162SOL     OW12571   3.389   3.992   2.519
 4162SOL    HW112572   3.429   3.913   2.556
 4162SOL    HW212573   3.446   4.014   2.445
 4163SOL     OW12574   4.414   2.758   3.643
 4163SOL    HW112575   4.397   2.777   3.736
 4163SOL    HW212576   4.418   2.662   3.639
 4164SOL     OW12577   4.419   4.349   3.483
 4164SOL    HW112578   4.391   4.376   3.396
 4164SOL    HW212579   4.387   4.260   3.493
 4165SOL     OW12580   3.101   2.847   3.624
 4165SOL    HW112581   3.063   2.759   3.622
 4165SOL    HW212582   3.028   2.904   3.647
 4166SOL     OW12583   2.665   4.689   3.684
 4166SOL    HW112584   2.599   4.712   3.619
 4166SOL    HW212585   2.722   4.626   3.641
 4167SOL     OW12586   2.998   2.960   3.215
 4167SOL    HW112587   3.074   2.902   3.213
 4167SOL    HW212588   3.026   3.034   3.268
 4168SOL     OW12589   3.921   3.653   4.866
 4168SOL    HW112590   3.866   3.596   4.920
 4168SOL    HW212591   3.999   3.600   4.847
 4169SOL     OW12592   4.904   4.668   4.201
 4169SOL    HW112593   4.810   4.679   4.193
 4169SOL    HW212594   4.939   4.687   4.114
 4170SOL     OW12595   3.525   3.654   2.508
 4170SOL    HW112596   3.536   3.644   2.413
 4170SOL    HW212597   3.433   3.633   2.524
 4171SOL     OW12598   4.548   3.354   3.692
 4171SOL    HW112599   4.617   3.407   3.652
 4171SOL    HW212600   4.573   3.349   3.785
 4172SOL     OW12601   4.860   4.803   2.702
 4172SOL    HW112602   4.807   4.867   2.750
 4172SOL    HW212603   4.926   4.774   2.764
 4173SOL     OW12604   4.210   2.509   2.490
 4173SOL    HW112605   4.118   2.486   2.485
 4173SOL    HW212606   4.242   2.463   2.568
 4174SOL     OW12607   4.243   2.735   2.639
 4174SOL    HW112608   4.307   2.757   2.707
 4174SOL    HW212609   4.266   2.647   2.611
 4175SOL     OW12610   4.432   4.227   2.753
 4175SOL    HW112611   4.500   4.188   2.809
 4175SOL    HW212612   4.403   4.155   2.697
 4176SOL     OW12613   3.088   4.779   3.830
 4176SOL    HW112614   3.114   4.766   3.738
 4176SOL    HW212615   3.000   4.817   3.824
 4177SOL     OW12616   3.661   3.100   3.343
 4177SOL    HW112617   3.639   3.133   3.256
 4177SOL    HW212618   3.606   3.022   3.354
 4178SOL     OW12619   2.826   4.077   2.507
 4178SOL    HW112620   2.735   4.098   2.485
 4178SOL    HW212621   2.864   4.046   2.425
 4179SOL     OW12622   3.806   3.394   3.888
 4179SOL    HW112623   3.853   3.323   3.932
 4179SOL    HW212624   3.855   3.473   3.912
 4180SOL     OW12625   4.564   2.955   2.590
 4180SOL    HW112626   4.576   2.939   2.496
 4180SOL    HW212627   4.647   2.993   2.618
 4181SOL     OW12628   3.076   3.455   4.877
 4181SOL    HW112629   2.987   3.489   4.864
 4181SOL    HW212630   3.065   3.361   4.889
 4182SOL     OW12631   2.575   3.888   3.944
 4182SOL    HW112632   2.509   3.867   4.010
 4182SOL    HW212633   2.550   3.975   3.912
 4183SOL     OW12634   2.539   4.712   2.891
 4183SOL    HW112635   2.634   4.721   2.894
 4183SOL    HW212636   2.517   4.665   2.972
 4184SOL     OW12637   2.796   3.206   4.173
 4184SOL    HW112638   2.703   3.189   4.160
 4184SOL    HW212639   2.836   3.187   4.088
 4185SOL     OW12640   4.497   2.969   3.881
 4185SOL    HW112641   4.506   2.963   3.786
 4185SOL    HW212642   4.447   2.891   3.905
 4186SOL     OW12643   2.503   3.077   2.918
 4186SOL    HW112644   2.550   3.005   2.960
 4186SOL    HW212645   2.565   3.112   2.854
 4187SOL     OW12646   2.540   3.372   3.474
 4187SOL    HW112647   2.462   3.323   3.447
 4187SOL    HW212648   2.534   3.454   3.425
 4188SOL     OW12649   4.542   3.487   2.585
 4188SOL    HW112650   4.626   3.490   2.630
 4188SOL    HW212651   4.493   3.417   2.628
 4189SOL     OW12652   2.992   3.507   2.845
 4189SOL    HW112653   2.949   3.590   2.823
 4189SOL    HW212654   2.937   3.440   2.804
 4190SOL     OW12655   3.537   3.366   4.180
 4190SOL    HW112656   3.617   3.419   4.186
 4190SOL    HW212657   3.475   3.410   4.237
 4191SOL     OW12658   2.828   3.473   4.150
 4191SOL    HW112659   2.755   3.520   4.111
 4191SOL    HW212660   2.834   3.392   4.100
 4192SOL     OW12661   3.962   4.623   4.088
 4192SOL    HW112662   3.877   4.607   4.048
 4192SOL    HW212663   4.020   4.640   4.014
 4193SOL     OW12664   2.639   2.585   3.887
 4193SOL    HW112665   2.652   2.580   3.792
 4193SOL    HW212666   2.715   2.633   3.919
 4194SOL     OW12667   2.538   4.884   4.603
 4194SOL    HW112668   2.492   4.820   4.658
 4194SOL    HW212669   2.512   4.863   4.514
 4195SOL     OW12670   2.756   3.355   4.658
 4195SOL    HW112671   2.781   3.447   4.673
 4195SOL    HW212672   2.780   3.338   4.567
 4196SOL     OW12673   4.164   3.877   3.097
 4196SOL    HW112674   4.181   3.834   3.013
 4196SOL    HW212675   4.178   3.970   3.080
 4197SOL     OW12676   3.463   3.801   4.081
 4197SOL    HW112677   3.520   3.837   4.148
 4197SOL    HW212678   3.504   3.719   4.055
 4198SOL     OW12679   3.334   2.726   3.502
 4198SOL    HW112680   3.391   2.687   3.568
 4198SOL    HW212681   3.254   2.749   3.550
 4199SOL     OW12682   4.814   3.476   3.963
 4199SOL    HW112683   4.735   3.444   4.007
 4199SOL    HW212684   4.825   3.418   3.888
 4200SOL     OW12685   4.572   3.758   4.433
 4200SOL    HW112686   4.620   3.693   4.382
 4200SOL    HW212687   4.552   3.714   4.516
 4201SOL     OW12688   2.509   3.337   4.823
 4201SOL    HW112689   2.580   3.282   4.790
 4201SOL    HW212690   2.451   3.348   4.748
 4202SOL     OW12691   3.182   3.168   3.508
 4202SOL    HW112692   3.239   3.092   3.495
 4202SOL    HW212693   3.208   3.204   3.593
 4203SOL     OW12694   2.562   3.704   2.559
 4203SOL    HW112695   2.539   3.691   2.467
 4203SOL    HW212696   2.650   3.741   2.557
 4204SOL     OW12697   4.679   3.006   4.448
 4204SOL    HW112698   4.639   3.000   4.361
 4204SOL    HW212699   4.664   2.920   4.487
 4205SOL     OW12700   4.655   4.463   4.343
 4205SOL    HW112701   4.621   4.374   4.343
 4205SOL    HW212702   4.701   4.472   4.259
 4206SOL     OW12703   2.504   2.669   4.544
 4206SOL    HW112704   2.518   2.581   4.580
 4206SOL    HW212705   2.492   2.655   4.450
 4207SOL     OW12706   4.712   3.904   3.138
 4207SOL    HW112707   4.739   3.871   3.224
 4207SOL    HW212708   4.622   3.935   3.151
 4208SOL     OW12709   3.261   4.163   4.116
 4208SOL    HW112710   3.325   4.158   4.187
 4208SOL    HW212711   3.218   4.248   4.128
 4209SOL     OW12712   4.098   4.680   3.834
 4209SOL    HW112713   4.114   4.768   3.801
 4209SOL    HW212714   4.183   4.651   3.869
 4210SOL     OW12715   3.153   3.186   3.008
 4210SOL    HW112716   3.203   3.267   3.012
 4210SOL    HW212717   3.132   3.166   3.099
 4211SOL     OW12718   4.693   4.939   2.906
 4211SOL    HW112719   4.636   4.996   2.957
 4211SOL    HW212720   4.652   4.853   2.912
 4212SOL     OW12721   2.614   2.490   2.768
 4212SOL    HW112722   2.611   2.497   2.672
 4212SOL    HW212723   2.702   2.455   2.786
 4213SOL     OW12724   2.754   3.216   3.463
 4213SOL    HW112725   2.681   3.278   3.469
 4213SOL    HW212726   2.808   3.249   3.391
 4214SOL     OW12727   3.603   2.822   2.876
 4214SOL    HW112728   3.679   2.826   2.819
 4214SOL    HW212729   3.528   2.819   2.816
 4215SOL     OW12730   4.884   4.221   3.363
 4215SOL    HW112731   4.883   4.207   3.268
 4215SOL    HW212732   4.842   4.307   3.374
 4216SOL     OW12733   2.853   4.532   3.592
 4216SOL    HW112734   2.902   4.459   3.553
 4216SOL    HW212735   2.859   4.516   3.686
 4217SOL     OW12736   4.963   3.245   3.135
 4217SOL    HW112737   4.990   3.329   3.097
 4217SOL    HW212738   4.985   3.180   3.068
 4218SOL     OW12739   2.825   4.597   4.715
 4218SOL    HW112740   2.762   4.536   4.754
 4218SOL    HW212741   2.903   4.589   4.770
 4219SOL     OW12742   2.589   3.605   3.973
 4219SOL    HW112743   2.595   3.697   3.947
 4219SOL    HW212744   2.496   3.586   3.973
 4220SOL     OW12745   3.158   4.429   3.742
 4220SOL    HW112746   3.081   4.380   3.771
 4220SOL    HW212747   3.160   4.506   3.799
 4221SOL     OW12748   2.607   2.958   3.549
 4221SOL    HW112749   2.578   3.000   3.469
 4221SOL    HW212750   2.528   2.945   3.600
 4222SOL     OW12751   3.154   3.463   4.555
 4222SOL    HW112752   3.180   3.386   4.604
 4222SOL    HW212753   3.086   3.432   4.495
 4223SOL     OW12754   2.566   4.703   3.421
 4223SOL    HW112755   2.494   4.656   3.379
 4223SOL    HW212756   2.645   4.674   3.375
 4224SOL     OW12757   3.968   3.589   3.748
 4224SOL    HW112758   3.945   3.509   3.702
 4224SOL    HW212759   3.886   3.639   3.751
 4225SOL     OW12760   2.935   3.777   2.827
 4225SOL    HW112761   3.026   3.782   2.855
 4225SOL    HW212762   2.895   3.857   2.863
 4226SOL     OW12763   4.879   4.133   3.101
 4226SOL    HW112764   4.960   4.090   3.074
 4226SOL    HW212765   4.816   4.061   3.112
 4227SOL     OW12766   3.558   4.657   4.269
 4227SOL    HW112767   3.515   4.743   4.270
 4227SOL    HW212768   3.489   4.596   4.293
 4228SOL     OW12769   3.899   3.068   4.335
 4228SOL    HW112770   3.850   2.993   4.302
 4228SOL    HW212771   3.851   3.097   4.412
 4229SOL     OW12772   4.291   3.220   3.263
 4229SOL    HW112773   4.234   3.235   3.339
 4229SOL    HW212774   4.257   3.140   3.224
 4230SOL     OW12775   2.856   3.622   4.835
 4230SOL    HW112776   2.783   3.657   4.784
 4230SOL    HW212777   2.850   3.667   4.919
 4231SOL     OW12778   2.529   2.598   4.136
 4231SOL    HW112779   2.601   2.656   4.158
 4231SOL    HW212780   2.545   2.573   4.045
 4232SOL     OW12781   3.417   3.117   3.640
 4232SOL    HW112782   3.418   3.175   3.716
 4232SOL    HW212783   3.503   3.074   3.642
 4233SOL     OW12784   3.046   2.899   4.932
 4233SOL    HW112785   2.984   2.957   4.976
 4233SOL    HW212786   3.002   2.875   4.851
 4234SOL     OW12787   3.114   4.951   4.048
 4234SOL    HW112788   3.145   5.009   3.979
 4234SOL    HW212789   3.114   4.864   4.008
 4235SOL     OW12790   3.793   3.726   3.381
 4235SOL    HW112791   3.885   3.741   3.358
 4235SOL    HW212792   3.744   3.763   3.307
 4236SOL     OW12793   3.775   4.252   2.931
 4236SOL    HW112794   3.793   4.339   2.897
 4236SOL    HW212795   3.693   4.226   2.889
 4237SOL     OW12796   4.012   3.463   4.122
 4237SOL    HW112797   4.033   3.460   4.215
 4237SOL    HW212798   4.021   3.372   4.092
 4238SOL     OW12799   2.728   3.843   4.248
 4238SOL    HW112800   2.694   3.756   4.268
 4238SOL    HW212801   2.671   3.875   4.178
 4239SOL     OW12802   3.534   4.039   3.961
 4239SOL    HW112803   3.496   3.951   3.952
 4239SOL    HW212804   3.473   4.096   3.914
 4240SOL     OW12805   3.951   4.182   3.118
 4240SOL    HW112806   3.900   4.205   3.040
 4240SOL    HW212807   3.885   4.152   3.180
 4241SOL     OW12808   4.172   4.458   4.395
 4241SOL    HW112809   4.188   4.552   4.408
 4241SOL    HW212810   4.125   4.431   4.474
 4242SOL     OW12811   4.051   3.756   3.330
 4242SOL    HW112812   4.124   3.749   3.392
 4242SOL    HW212813   4.088   3.804   3.255
 4243SOL     OW12814   3.126   4.253   2.930
 4243SOL    HW112815   3.191   4.311   2.890
 4243SOL    HW212816   3.146   4.255   3.024
 4244SOL     OW12817   3.090   3.553   3.117
 4244SOL    HW112818   3.063   3.538   3.027
 4244SOL    HW212819   3.185   3.542   3.116
 4245SOL     OW12820   3.268   4.691   4.516
 4245SOL    HW112821   3.256   4.607   4.472
 4245SOL    HW212822   3.184   4.709   4.557
 4246SOL     OW12823   3.624   4.758   2.581
 4246SOL    HW112824   3.632   4.679   2.528
 4246SOL    HW212825   3.565   4.815   2.531
 4247SOL     OW12826   2.904   3.190   2.921
 4247SOL    HW112827   2.986   3.187   2.972
 4247SOL    HW212828   2.932   3.211   2.832
 4248SOL     OW12829   3.477   4.605   2.958
 4248SOL    HW112830   3.507   4.593   3.048
 4248SOL    HW212831   3.531   4.677   2.925
 4249SOL     OW12832   4.750   2.606   3.417
 4249SOL    HW112833   4.715   2.692   3.440
 4249SOL    HW212834   4.821   2.624   3.355
 4250SOL     OW12835   3.169   2.587   2.782
 4250SOL    HW112836   3.212   2.622   2.705
 4250SOL    HW212837   3.158   2.662   2.840
 4251SOL     OW12838   3.167   4.034   4.440
 4251SOL    HW112839   3.120   3.951   4.431
 4251SOL    HW212840   3.123   4.079   4.512
 4252SOL     OW12841   4.890   3.262   2.588
 4252SOL    HW112842   4.876   3.170   2.569
 4252SOL    HW212843   4.924   3.299   2.506
 4253SOL     OW12844   4.333   2.577   2.923
 4253SOL    HW112845   4.388   2.498   2.925
 4253SOL    HW212846   4.389   2.644   2.885
 4254SOL     OW12847   4.199   4.913   3.268
 4254SOL    HW112848   4.260   4.978   3.302
 4254SOL    HW212849   4.176   4.860   3.345
 4255SOL     OW12850   2.503   3.040   3.310
 4255SOL    HW112851   2.533   3.112   3.255
 4255SOL    HW212852   2.518   2.961   3.257
 4256SOL     OW12853   4.243   4.175   3.024
 4256SOL    HW112854   4.232   4.225   2.943
 4256SOL    HW212855   4.163   4.193   3.074
 4257SOL     OW12856   4.737   2.626   2.655
 4257SOL    HW112857   4.806   2.651   2.716
 4257SOL    HW212858   4.670   2.586   2.710
 4258SOL     OW12859   3.894   3.176   4.042
 4258SOL    HW112860   3.868   3.108   4.103
 4258SOL    HW212861   3.892   3.134   3.956
 4259SOL     OW12862   3.877   4.214   4.200
 4259SOL    HW112863   3.891   4.301   4.239
 4259SOL    HW212864   3.824   4.232   4.122
 4260SOL     OW12865   4.373   2.686   3.299
 4260SOL    HW112866   4.329   2.771   3.309
 4260SOL    HW212867   4.394   2.659   3.388
 4261SOL     OW12868   4.566   3.611   3.331
 4261SOL    HW112869   4.547   3.519   3.315
 4261SOL    HW212870   4.660   3.619   3.320
 4262SOL     OW12871   2.616   2.976   4.038
 4262SOL    HW112872   2.677   3.031   3.990
 4262SOL    HW212873   2.584   2.912   3.974
 4263SOL     OW12874   3.112   4.096   3.389
 4263SOL    HW112875   3.176   4.151   3.434
 4263SOL    HW212876   3.093   4.025   3.451
 4264SOL     OW12877   3.890   3.055   3.790
 4264SOL    HW112878   3.972   3.054   3.740
 4264SOL    HW212879   3.821   3.044   3.724
 4265SOL     OW12880   3.594   4.135   2.684
 4265SOL    HW112881   3.622   4.059   2.634
 4265SOL    HW212882   3.534   4.100   2.750
 4266SOL     OW12883   2.692   3.728   4.603
 4266SOL    HW112884   2.746   3.795   4.645
 4266SOL    HW212885   2.732   3.717   4.516
 4267SOL     OW12886   4.198   4.760   2.656
 4267SOL    HW112887   4.244   4.683   2.691
 4267SOL    HW212888   4.116   4.726   2.622
 4268SOL     OW12889   3.218   2.634   3.819
 4268SOL    HW112890   3.204   2.722   3.854
 4268SOL    HW212891   3.147   2.621   3.756
 4269SOL     OW12892   3.900   2.878   2.850
 4269SOL    HW112893   3.924   2.958   2.895
 4269SOL    HW212894   3.965   2.869   2.780
 4270SOL     OW12895   2.537   4.879   4.317
 4270SOL    HW112896   2.510   4.944   4.252
 4270SOL    HW212897   2.497   4.797   4.288
 4271SOL     OW12898   3.861   3.661   4.043
 4271SOL    HW112899   3.932   3.600   4.063
 4271SOL    HW212900   3.904   3.735   4.001
 4272SOL     OW12901   4.523   4.215   3.993
 4272SOL    HW112902   4.471   4.135   3.987
 4272SOL    HW212903   4.502   4.264   3.914
 4273SOL     OW12904   4.142   3.047   3.686
 4273SOL    HW112905   4.222   3.072   3.732
 4273SOL    HW212906   4.114   3.125   3.640
 4274SOL     OW12907   4.100   3.349   2.630
 4274SOL    HW112908   4.073   3.390   2.548
 4274SOL    HW212909   4.074   3.411   2.698
 4275SOL     OW12910   3.168   4.384   3.231
 4275SOL    HW112911   3.263   4.378   3.227
 4275SOL    HW212912   3.145   4.450   3.166
 4276SOL     OW12913   3.879   4.876   3.357
 4276SOL    HW112914   3.787   4.901   3.360
 4276SOL    HW212915   3.908   4.902   3.270
 4277SOL     OW12916   3.041   4.884   4.529
 4277SOL    HW112917   3.059   4.931   4.447
 4277SOL    HW212918   2.964   4.831   4.511
 4278SOL     OW12919   4.803   4.814   3.191
 4278SOL    HW112920   4.767   4.841   3.107
 4278SOL    HW212921   4.731   4.768   3.234
 4279SOL     OW12922   4.748   4.130   4.152
 4279SOL    HW112923   4.688   4.162   4.084
 4279SOL    HW212924   4.709   4.160   4.234
 4280SOL     OW12925   2.505   4.319   3.612
 4280SOL    HW112926   2.470   4.349   3.528
 4280SOL    HW212927   2.574   4.258   3.589
 4281SOL     OW12928   3.961   4.449   3.759
 4281SOL    HW112929   4.023   4.518   3.782
 4281SOL    HW212930   3.876   4.492   3.760
 4282SOL     OW12931   3.217   2.717   2.535
 4282SOL    HW112932   3.139   2.771   2.520
 4282SOL    HW212933   3.248   2.695   2.447
 4283SOL     OW12934   2.836   4.862   3.811
 4283SOL    HW112935   2.819   4.947   3.771
 4283SOL    HW212936   2.785   4.800   3.759
 4284SOL     OW12937   3.580   2.829   3.776
 4284SOL    HW112938   3.563   2.745   3.733
 4284SOL    HW212939   3.624   2.882   3.710
 4285SOL     OW12940   4.676   3.755   3.951
 4285SOL    HW112941   4.725   3.754   3.868
 4285SOL    HW212942   4.723   3.694   4.007
 4286SOL     OW12943   2.900   3.312   4.434
 4286SOL    HW112944   2.914   3.218   4.437
 4286SOL    HW212945   2.867   3.328   4.345
 4287SOL     OW12946   2.747   3.791   3.426
 4287SOL    HW112947   2.838   3.762   3.421
 4287SOL    HW212948   2.729   3.829   3.339
 4288SOL     OW12949   4.257   4.582   3.611
 4288SOL    HW112950   4.180   4.569   3.556
 4288SOL    HW212951   4.288   4.493   3.630
 4289SOL     OW12952   3.519   2.796   3.132
 4289SOL    HW112953   3.582   2.812   3.062
 4289SOL    HW212954   3.435   2.824   3.097
 4290SOL     OW12955   2.776   2.882   4.847
 4290SOL    HW112956   2.699   2.909   4.799
 4290SOL    HW212957   2.787   2.789   4.826
 4291SOL     OW12958   3.627   4.395   4.368
 4291SOL    HW112959   3.715   4.420   4.341
 4291SOL    HW212960   3.593   4.344   4.294
 4292SOL     OW12961   3.931   3.095   3.303
 4292SOL    HW112962   3.836   3.103   3.316
 4292SOL    HW212963   3.969   3.127   3.385
 4293SOL     OW12964   4.132   4.091   4.161
 4293SOL    HW112965   4.056   4.144   4.138
 4293SOL    HW212966   4.097   4.003   4.173
 4294SOL     OW12967   4.699   4.925   4.229
 4294SOL    HW112968   4.695   4.906   4.322
 4294SOL    HW212969   4.733   5.014   4.223
 4295SOL     OW12970   4.228   2.658   4.730
 4295SOL    HW112971   4.225   2.614   4.815
 4295SOL    HW212972   4.170   2.605   4.674
 4296SOL     OW12973   2.816   4.505   3.856
 4296SOL    HW112974   2.795   4.451   3.933
 4296SOL    HW212975   2.777   4.590   3.876
 4297SOL     OW12976   2.543   4.155   2.498
 4297SOL    HW112977   2.582   4.238   2.471
 4297SOL    HW212978   2.449   4.168   2.488
 4298SOL     OW12979   3.155   2.712   3.270
 4298SOL    HW112980   3.127   2.620   3.274
 4298SOL    HW212981   3.218   2.721   3.342
 4299SOL     OW12982   4.562   2.536   3.136
 4299SOL    HW112983   4.486   2.592   3.154
 4299SOL    HW212984   4.619   2.549   3.212
 4300SOL     OW12985   3.133   3.832   2.535
 4300SOL    HW112986   3.108   3.901   2.597
 4300SOL    HW212987   3.120   3.872   2.449
 4301SOL     OW12988   4.801   2.870   4.081
 4301SOL    HW112989   4.862   2.797   4.081
 4301SOL    HW212990   4.717   2.830   4.059
 4302SOL     OW12991   2.585   3.616   4.296
 4302SOL    HW112992   2.512   3.578   4.344
 4302SOL    HW212993   2.599   3.555   4.223
 4303SOL     OW12994   4.076   3.073   2.613
 4303SOL    HW112995   4.080   3.169   2.612
 4303SOL    HW212996   4.157   3.046   2.656
 4304SOL     OW12997   2.974   4.889   3.338
 4304SOL    HW112998   3.029   4.889   3.259
 4304SOL    HW212999   2.894   4.934   3.311
 4305SOL     OW13000   4.861   4.473   3.806
 4305SOL    HW113001   4.927   4.441   3.744
 4305SOL    HW213002   4.781   4.477   3.754
 4306SOL     OW13003   4.024   2.703   4.175
 4306SOL    HW113004   4.030   2.791   4.140
 4306SOL    HW213005   3.967   2.711   4.252
 4307SOL     OW13006   4.641   3.110   3.631
 4307SOL    HW113007   4.599   3.194   3.618
 4307SOL    HW213008   4.700   3.100   3.556
 4308SOL     OW13009   3.339   3.604   3.044
 4308SOL    HW113010   3.382   3.526   3.010
 4308SOL    HW213011   3.405   3.645   3.101
 4309SOL     OW13012   4.962   4.145   2.777
 4309SOL    HW113013   4.930   4.055   2.786
 4309SOL    HW213014   5.003   4.148   2.690
 4310SOL     OW13015   2.973   4.357   3.430
 4310SOL    HW113016   3.024   4.383   3.353
 4310SOL    HW213017   3.027   4.289   3.471
 4311SOL     OW13018   2.720   4.448   3.304
 4311SOL    HW113019   2.782   4.456   3.377
 4311SOL    HW213020   2.706   4.354   3.294
 4312SOL     OW13021   3.179   3.748   4.061
 4312SOL    HW113022   3.136   3.834   4.068
 4312SOL    HW213023   3.272   3.769   4.051
 4313SOL     OW13024   3.633   3.937   3.245
 4313SOL    HW113025   3.552   3.948   3.296
 4313SOL    HW213026   3.702   3.968   3.304
 4314SOL     OW13027   3.729   2.985   3.588
 4314SOL    HW113028   3.732   2.899   3.545
 4314SOL    HW213029   3.728   3.048   3.515
 4315SOL     OW13030   3.116   4.580   3.045
 4315SOL    HW113031   3.190   4.629   3.009
 4315SOL    HW213032   3.045   4.643   3.050
 4316SOL     OW13033   4.334   3.314   2.728
 4316SOL    HW113034   4.351   3.220   2.727
 4316SOL    HW213035   4.258   3.325   2.670
 4317SOL     OW13036   3.038   2.526   4.821
 4317SOL    HW113037   3.028   2.446   4.769
 4317SOL    HW213038   3.116   2.568   4.785
 4318SOL     OW13039   3.006   3.835   4.355
 4318SOL    HW113040   2.929   3.877   4.317
 4318SOL    HW213041   2.975   3.747   4.379
 4319SOL     OW13042   2.521   3.255   4.051
 4319SOL    HW113043   2.438   3.217   4.022
 4319SOL    HW213044   2.551   3.307   3.976
 4320SOL     OW13045   4.198   3.767   3.563
 4320SOL    HW113046   4.215   3.695   3.624
 4320SOL    HW213047   4.285   3.793   3.533
 4321SOL     OW13048   4.875   3.903   2.707
 4321SOL    HW113049   4.926   3.823   2.700
 4321SOL    HW213050   4.830   3.911   2.623
 4322SOL     OW13051   3.641   2.549   3.162
 4322SOL    HW113052   3.597   2.634   3.160
 4322SOL    HW213053   3.729   2.567   3.127
 4323SOL     OW13054   2.677   2.501   2.501
 4323SOL    HW113055   2.754   2.552   2.526
 4323SOL    HW213056   2.694   2.476   2.410
 4324SOL     OW13057   3.795   4.343   3.971
 4324SOL    HW113058   3.740   4.419   3.951
 4324SOL    HW213059   3.881   4.365   3.936
 4325SOL     OW13060   4.365   3.682   2.739
 4325SOL    HW113061   4.401   3.640   2.660
 4325SOL    HW213062   4.295   3.623   2.767
 4326SOL     OW13063   3.380   4.151   4.360
 4326SOL    HW113064   3.292   4.115   4.375
 4326SOL    HW213065   3.436   4.102   4.420
 4327SOL     OW13066   3.218   3.235   4.683
 4327SOL    HW113067   3.233   3.210   4.775
 4327SOL    HW213068   3.146   3.178   4.655
 4328SOL     OW13069   3.471   3.749   3.575
 4328SOL    HW113070   3.523   3.736   3.496
 4328SOL    HW213071   3.395   3.798   3.545
 4329SOL     OW13072   4.075   2.931   4.039
 4329SOL    HW113073   4.043   2.967   3.956
 4329SOL    HW213074   4.092   3.008   4.093
 4330SOL     OW13075   2.583   3.296   3.757
 4330SOL    HW113076   2.589   3.329   3.668
 4330SOL    HW213077   2.492   3.268   3.766
 4331SOL     OW13078   4.315   3.032   2.736
 4331SOL    HW113079   4.394   3.009   2.687
 4331SOL    HW213080   4.337   3.013   2.827
 4332SOL     OW13081   3.859   4.490   4.318
 4332SOL    HW113082   3.847   4.539   4.399
 4332SOL    HW213083   3.918   4.544   4.265
 4333SOL     OW13084   2.872   4.552   2.928
 4333SOL    HW113085   2.963   4.529   2.946
 4333SOL    HW213086   2.822   4.475   2.956
 4334SOL     OW13087   3.326   4.178   3.845
 4334SOL    HW113088   3.251   4.213   3.797
 4334SOL    HW213089   3.292   4.161   3.933
 4335SOL     OW13090   3.696   4.606   4.024
 4335SOL    HW113091   3.647   4.603   3.942
 4335SOL    HW213092   3.629   4.603   4.093
 4336SOL     OW13093   4.834   4.490   3.425
 4336SOL    HW113094   4.787   4.553   3.370
 4336SOL    HW213095   4.789   4.494   3.510
 4337SOL     OW13096   3.044   4.619   4.881
 4337SOL    HW113097   3.132   4.657   4.877
 4337SOL    HW213098   3.049   4.554   4.952
 4338SOL     OW13099   4.173   3.452   3.111
 4338SOL    HW113100   4.231   3.527   3.125
 4338SOL    HW213101   4.207   3.384   3.168
 4339SOL     OW13102   3.773   3.779   3.768
 4339SOL    HW113103   3.770   3.854   3.828
 4339SOL    HW213104   3.686   3.778   3.727
 4340SOL     OW13105   2.936   3.520   3.506
 4340SOL    HW113106   3.002   3.485   3.566
 4340SOL    HW213107   2.882   3.578   3.561
 4341SOL     OW13108   2.848   3.901   4.717
 4341SOL    HW113109   2.940   3.896   4.694
 4341SOL    HW213110   2.814   3.974   4.664
 4342SOL     OW13111   4.342   3.653   3.133
 4342SOL    HW113112   4.403   3.656   3.207
 4342SOL    HW213113   4.297   3.737   3.136
 4343SOL     OW13114   4.139   4.039   3.786
 4343SOL    HW113115   4.077   3.980   3.744
 4343SOL    HW213116   4.195   3.981   3.839
 4344SOL     OW13117   3.292   4.652   2.709
 4344SOL    HW113118   3.231   4.582   2.684
 4344SOL    HW213119   3.346   4.614   2.778
 4345SOL     OW13120   2.703   4.190   3.835
 4345SOL    HW113121   2.708   4.197   3.740
 4345SOL    HW213122   2.610   4.174   3.852
 4346SOL     OW13123   3.129   3.532   3.913
 4346SOL    HW113124   3.205   3.587   3.897
 4346SOL    HW213125   3.080   3.578   3.981
 4347SOL     OW13126   4.219   3.609   3.813
 4347SOL    HW113127   4.126   3.601   3.790
 4347SOL    HW213128   4.219   3.623   3.908
 4348SOL     OW13129   3.710   2.606   4.251
 4348SOL    HW113130   3.624   2.615   4.209
 4348SOL    HW213131   3.707   2.520   4.292
 4349SOL     OW13132   3.222   4.594   3.963
 4349SOL    HW113133   3.313   4.568   3.945
 4349SOL    HW213134   3.214   4.681   3.925
 4350SOL     OW13135   4.584   4.376   2.562
 4350SOL    HW113136   4.668   4.410   2.595
 4350SOL    HW213137   4.544   4.333   2.637
 4351SOL     OW13138   4.761   3.531   2.967
 4351SOL    HW113139   4.673   3.494   2.970
 4351SOL    HW213140   4.785   3.530   2.874
 4352SOL     OW13141   4.935   2.721   2.820
 4352SOL    HW113142   4.996   2.767   2.878
 4352SOL    HW213143   4.974   2.634   2.808
 4353SOL     OW13144   3.834   3.822   2.762
 4353SOL    HW113145   3.778   3.875   2.705
 4353SOL    HW213146   3.806   3.845   2.850
 4354SOL     OW13147   2.854   3.796   3.896
 4354SOL    HW113148   2.905   3.836   3.967
 4354SOL    HW213149   2.769   3.840   3.901
 4355SOL     OW13150   3.421   4.399   3.256
 4355SOL    HW113151   3.500   4.453   3.263
 4355SOL    HW213152   3.400   4.374   3.346
 4356SOL     OW13153   4.387   4.094   3.388
 4356SOL    HW113154   4.411   4.020   3.443
 4356SOL    HW213155   4.425   4.073   3.302
 4357SOL     OW13156   3.409   4.036   2.850
 4357SOL    HW113157   3.337   3.981   2.880
 4357SOL    HW213158   3.445   4.074   2.931
 4358SOL     OW13159   4.152   2.891   3.237
 4358SOL    HW113160   4.119   2.811   3.195
 4358SOL    HW213161   4.076   2.949   3.240
 4359SOL     OW13162   3.232   3.408   2.785
 4359SOL    HW113163   3.144   3.439   2.803
 4359SOL    HW213164   3.264   3.465   2.715
 4360SOL     OW13165   3.823   4.520   2.915
 4360SOL    HW113166   3.811   4.608   2.880
 4360SOL    HW213167   3.803   4.528   3.008
 4361SOL     OW13168   3.597   4.866   3.375
 4361SOL    HW113169   3.506   4.895   3.375
 4361SOL    HW213170   3.637   4.912   3.301
 4362SOL     OW13171   2.556   4.917   3.101
 4362SOL    HW113172   2.481   4.875   3.142
 4362SOL    HW213173   2.553   4.890   3.010
 4363SOL     OW13174   2.734   2.525   3.295
 4363SOL    HW113175   2.672   2.539   3.367
 4363SOL    HW213176   2.682   2.482   3.227
 4364SOL     OW13177   3.721   2.887   4.275
 4364SOL    HW113178   3.687   2.905   4.187
 4364SOL    HW213179   3.746   2.795   4.273
 4365SOL     OW13180   2.987   3.722   3.321
 4365SOL    HW113181   2.999   3.664   3.247
 4365SOL    HW213182   3.049   3.690   3.387
 4366SOL     OW13183   3.907   4.148   2.653
 4366SOL    HW113184   3.836   4.086   2.638
 4366SOL    HW213185   3.889   4.185   2.739
 4367SOL     OW13186   4.798   4.431   2.708
 4367SOL    HW113187   4.813   4.515   2.751
 4367SOL    HW213188   4.880   4.383   2.721
 4368SOL     OW13189   2.623   4.419   4.863
 4368SOL    HW113190   2.597   4.485   4.927
 4368SOL    HW213191   2.573   4.441   4.785
 4369SOL     OW13192   3.075   2.562   4.289
 4369SOL    HW113193   3.113   2.530   4.207
 4369SOL    HW213194   2.981   2.559   4.274
 4370SOL     OW13195   3.471   4.772   3.703
 4370SOL    HW113196   3.432   4.724   3.630
 4370SOL    HW213197   3.559   4.792   3.673
 4371SOL     OW13198   4.955   3.978   3.448
 4371SOL    HW113199   4.970   3.982   3.542
 4371SOL    HW213200   4.921   4.064   3.425
 4372SOL     OW13201   2.616   3.102   4.510
 4372SOL    HW113202   2.609   3.074   4.418
 4372SOL    HW213203   2.704   3.140   4.517
 4373SOL     OW13204   4.294   3.638   4.095
 4373SOL    HW113205   4.385   3.667   4.110
 4373SOL    HW213206   4.291   3.551   4.134
 4374SOL     OW13207   4.034   3.467   2.868
 4374SOL    HW113208   4.054   3.560   2.858
 4374SOL    HW213209   4.087   3.439   2.942
 4375SOL     OW13210   2.762   2.582   3.624
 4375SOL    HW113211   2.783   2.654   3.564
 4375SOL    HW213212   2.685   2.540   3.584
 4376SOL     OW13213   2.741   3.034   3.091
 4376SOL    HW113214   2.805   3.016   3.160
 4376SOL    HW213215   2.778   3.109   3.043
 4377SOL     OW13216   2.889   3.334   2.683
 4377SOL    HW113217   2.941   3.291   2.615
 4377SOL    HW213218   2.816   3.373   2.635
 4378SOL     OW13219   3.760   3.496   4.227
 4378SOL    HW113220   3.846   3.467   4.258
 4378SOL    HW213221   3.780   3.558   4.157
 4379SOL     OW13222   4.493   2.748   2.794
 4379SOL    HW113223   4.530   2.766   2.708
 4379SOL    HW213224   4.473   2.834   2.831
 4380SOL     OW13225   3.496   4.148   3.083
 4380SOL    HW113226   3.451   4.229   3.108
 4380SOL    HW213227   3.566   4.139   3.147
 4381SOL     OW13228   3.478   4.395   3.608
 4381SOL    HW113229   3.428   4.472   3.581
 4381SOL    HW213230   3.567   4.413   3.577
 4382SOL     OW13231   3.452   4.423   3.892
 4382SOL    HW113232   3.405   4.342   3.913
 4382SOL    HW213233   3.473   4.415   3.799
 4383SOL     OW13234   2.899   3.949   3.660
 4383SOL    HW113235   2.846   3.879   3.699
 4383SOL    HW213236   2.980   3.949   3.711
 4384SOL     OW13237   4.369   2.642   4.501
 4384SOL    HW113238   4.329   2.646   4.588
 4384SOL    HW213239   4.316   2.579   4.453
 4385SOL     OW13240   4.492   4.080   3.111
 4385SOL    HW113241   4.401   4.094   3.087
 4385SOL    HW213242   4.538   4.072   3.027
 4386SOL     OW13243   3.227   3.854   3.518
 4386SOL    HW113244   3.163   3.845   3.589
 4386SOL    HW213245   3.212   3.777   3.463
 4387SOL     OW13246   4.931   3.748   3.041
 4387SOL    HW113247   4.888   3.665   3.019
 4387SOL    HW213248   4.860   3.807   3.066
 4388SOL     OW13249   2.811   3.795   2.574
 4388SOL    HW113250   2.872   3.770   2.644
 4388SOL    HW213251   2.822   3.890   2.566
 4389SOL     OW13252   4.536   2.948   4.209
 4389SOL    HW113253   4.475   2.877   4.228
 4389SOL    HW213254   4.511   2.979   4.121
 4390SOL     OW13255   2.895   2.814   2.839
 4390SOL    HW113256   2.901   2.724   2.809
 4390SOL    HW213257   2.971   2.824   2.897
 4391SOL     OW13258   4.158   4.467   2.880
 4391SOL    HW113259   4.178   4.522   2.956
 4391SOL    HW213260   4.062   4.472   2.872
 4392SOL     OW13261   3.848   2.673   3.602
 4392SOL    HW113262   3.938   2.693   3.627
 4392SOL    HW213263   3.841   2.706   3.512
 4393SOL     OW13264   3.043   2.565   3.579
 4393SOL    HW113265   2.973   2.530   3.635
 4393SOL    HW213266   3.026   2.526   3.493
 4394SOL     OW13267   4.686   4.491   4.032
 4394SOL    HW113268   4.610   4.455   3.987
 4394SOL    HW213269   4.755   4.492   3.965
 4395SOL     OW13270   4.623   4.837   3.515
 4395SOL    HW113271   4.666   4.917   3.485
 4395SOL    HW213272   4.648   4.829   3.607
 4396SOL     OW13273   4.960   3.880   4.426
 4396SOL    HW113274   5.035   3.842   4.472
 4396SOL    HW213275   4.959   3.836   4.341
 4397SOL     OW13276   3.348   3.773   4.343
 4397SOL    HW113277   3.289   3.842   4.313
 4397SOL    HW213278   3.436   3.808   4.325
 4398SOL     OW13279   3.010   2.823   4.575
 4398SOL    HW113280   2.956   2.744   4.573
 4398SOL    HW213281   3.078   2.804   4.640
 4399SOL     OW13282   3.383   3.352   2.999
 4399SOL    HW113283   3.350   3.366   2.910
 4399SOL    HW213284   3.449   3.284   2.989
 4400SOL     OW13285   3.137   3.311   3.789
 4400SOL    HW113286   3.048   3.291   3.759
 4400SOL    HW213287   3.127   3.391   3.840
 4401SOL     OW13288   2.874   4.184   2.951
 4401SOL    HW113289   2.964   4.216   2.946
 4401SOL    HW213290   2.874   4.123   3.025
 4402SOL     OW13291   3.364   3.647   3.795
 4402SOL    HW113292   3.441   3.635   3.849
 4402SOL    HW213293   3.395   3.696   3.719
 4403SOL     OW13294   4.581   4.905   3.861
 4403SOL    HW113295   4.577   4.889   3.955
 4403SOL    HW213296   4.528   4.835   3.823
 4404SOL     OW13297   3.398   2.693   4.200
 4404SOL    HW113298   3.345   2.740   4.264
 4404SOL    HW213299   3.385   2.742   4.119
 4405SOL     OW13300   4.867   3.873   4.164
 4405SOL    HW113301   4.808   3.948   4.151
 4405SOL    HW213302   4.809   3.797   4.165
 4406SOL     OW13303   3.425   4.015   3.423
 4406SOL    HW113304   3.340   3.998   3.463
 4406SOL    HW213305   3.480   4.046   3.495
 4407SOL     OW13306   4.465   3.839   3.466
 4407SOL    HW113307   4.485   3.841   3.560
 4407SOL    HW213308   4.500   3.756   3.436
 4408SOL     OW13309   3.889   4.871   3.036
 4408SOL    HW113310   3.958   4.876   2.970
 4408SOL    HW213311   3.840   4.792   3.013
 4409SOL     OW13312   2.822   4.549   2.640
 4409SOL    HW113313   2.800   4.456   2.645
 4409SOL    HW213314   2.813   4.580   2.731
 4410SOL     OW13315   2.779   4.170   3.295
 4410SOL    HW113316   2.777   4.091   3.240
 4410SOL    HW213317   2.871   4.184   3.315
 4411SOL     OW13318   2.662   2.773   3.062
 4411SOL    HW113319   2.718   2.850   3.070
 4411SOL    HW213320   2.723   2.700   3.055
 4412SOL     OW13321   3.058   4.154   4.651
 4412SOL    HW113322   3.100   4.171   4.735
 4412SOL    HW213323   2.969   4.186   4.662
 4413SOL     OW13324   4.081   3.814   4.159
 4413SOL    HW113325   4.028   3.769   4.224
 4413SOL    HW213326   4.158   3.759   4.148
 4414SOL     OW13327   3.138   3.707   4.701
 4414SOL    HW113328   3.100   3.653   4.771
 4414SOL    HW213329   3.133   3.652   4.623
 4415SOL     OW13330   2.724   3.349   3.014
 4415SOL    HW113331   2.752   3.366   3.104
 4415SOL    HW213332   2.791   3.291   2.979
 4416SOL     OW13333   3.962   3.918   3.581
 4416SOL    HW113334   3.902   3.856   3.623
 4416SOL    HW213335   4.035   3.863   3.550
 4417SOL     OW13336   3.430   4.883   4.200
 4417SOL    HW113337   3.412   4.866   4.108
 4417SOL    HW213338   3.433   4.978   4.206
 4418SOL     OW13339   2.813   4.249   4.700
 4418SOL    HW113340   2.763   4.224   4.622
 4418SOL    HW213341   2.751   4.296   4.755
 4419SOL     OW13342   2.528   3.653   4.788
 4419SOL    HW113343   2.592   3.656   4.717
 4419SOL    HW213344   2.462   3.591   4.758
 4420SOL     OW13345   2.740   4.018   4.487
 4420SOL    HW113346   2.744   3.976   4.401
 4420SOL    HW213347   2.689   4.097   4.473
 4421SOL     OW13348   3.821   3.955   3.956
 4421SOL    HW113349   3.754   4.023   3.968
 4421SOL    HW213350   3.856   3.942   4.044
 4422SOL     OW13351   2.779   4.372   4.084
 4422SOL    HW113352   2.837   4.333   4.150
 4422SOL    HW213353   2.736   4.297   4.043
 4423SOL     OW13354   3.996   3.857   4.624
 4423SOL    HW113355   4.044   3.934   4.653
 4423SOL    HW213356   3.982   3.806   4.704
 4424SOL     OW13357   3.793   4.185   4.491
 4424SOL    HW113358   3.747   4.262   4.458
 4424SOL    HW213359   3.874   4.181   4.440
 4425SOL     OW13360   3.749   2.883   3.993
 4425SOL    HW113361   3.673   2.826   3.975
 4425SOL    HW213362   3.747   2.947   3.922
 4426SOL     OW13363   4.610   4.633   3.305
 4426SOL    HW113364   4.603   4.702   3.371
 4426SOL    HW213365   4.521   4.621   3.273
 4427SOL     OW13366   4.395   4.448   4.100
 4427SOL    HW113367   4.319   4.421   4.152
 4427SOL    HW213368   4.450   4.370   4.096
 4428SOL     OW13369   4.151   4.268   3.310
 4428SOL    HW113370   4.229   4.212   3.318
 4428SOL    HW213371   4.086   4.213   3.267
 4429SOL     OW13372   2.558   3.599   3.319
 4429SOL    HW113373   2.628   3.626   3.377
 4429SOL    HW213374   2.585   3.630   3.232
 4430SOL     OW13375   3.110   3.766   3.753
 4430SOL    HW113376   3.183   3.729   3.803
 4430SOL    HW213377   3.035   3.710   3.774
 4431SOL     OW13378   3.531   3.113   4.321
 4431SOL    HW113379   3.538   3.170   4.245
 4431SOL    HW213380   3.565   3.029   4.290
 4432SOL     OW13381   2.927   3.050   3.621
 4432SOL    HW113382   2.994   3.075   3.557
 4432SOL    HW213383   2.845   3.080   3.582
 4433SOL     OW13384   3.202   3.825   2.915
 4433SOL    HW113385   3.246   3.750   2.954
 4433SOL    HW213386   3.171   3.876   2.990
 4434SOL     OW13387   4.836   4.870   3.775
 4434SOL    HW113388   4.885   4.810   3.831
 4434SOL    HW213389   4.752   4.882   3.821
 4435SOL     OW13390   3.586   4.027   4.507
 4435SOL    HW113391   3.656   4.090   4.496
 4435SOL    HW213392   3.616   3.968   4.577
 4436SOL     OW13393   3.803   3.434   2.515
 4436SOL    HW113394   3.740   3.374   2.475
 4436SOL    HW213395   3.755   3.475   2.587
 4437SOL     OW13396   3.631   3.191   3.078
 4437SOL    HW113397   3.687   3.265   3.055
 4437SOL    HW213398   3.656   3.122   3.016
 4438SOL     OW13399   3.679   3.180   2.729
 4438SOL    HW113400   3.585   3.173   2.746
 4438SOL    HW213401   3.709   3.250   2.787
 4439SOL     OW13402   4.336   3.184   3.819
 4439SOL    HW113403   4.397   3.241   3.772
 4439SOL    HW213404   4.390   3.111   3.849
 4440SOL     OW13405   3.635   3.502   3.604
 4440SOL    HW113406   3.595   3.580   3.642
 4440SOL    HW213407   3.606   3.430   3.660
 4441SOL     OW13408   4.698   4.007   4.475
 4441SOL    HW113409   4.775   3.987   4.422
 4441SOL    HW213410   4.647   3.925   4.475
 4442SOL     OW13411   2.648   3.185   2.720
 4442SOL    HW113412   2.568   3.207   2.672
 4442SOL    HW213413   2.702   3.264   2.713
 4443SOL     OW13414   2.586   3.799   3.644
 4443SOL    HW113415   2.627   3.815   3.558
 4443SOL    HW213416   2.621   3.714   3.671
 4444SOL     OW13417   4.844   2.878   3.693
 4444SOL    HW113418   4.773   2.872   3.630
 4444SOL    HW213419   4.851   2.790   3.730
 4445SOL     OW13420   3.622   3.855   4.280
 4445SOL    HW113421   3.701   3.809   4.307
 4445SOL    HW213422   3.620   3.933   4.335
 4446SOL     OW13423   3.895   3.464   3.502
 4446SOL    HW113424   3.894   3.546   3.453
 4446SOL    HW213425   3.804   3.453   3.531
 4447SOL     OW13426   2.775   3.174   3.888
 4447SOL    HW113427   2.718   3.222   3.829
 4447SOL    HW213428   2.815   3.106   3.833
 4448SOL     OW13429   3.867   2.727   3.113
 4448SOL    HW113430   3.888   2.784   3.038
 4448SOL    HW213431   3.923   2.651   3.102
 4449SOL     OW13432   4.372   4.566   2.723
 4449SOL    HW113433   4.331   4.496   2.774
 4449SOL    HW213434   4.451   4.526   2.687
 4450SOL     OW13435   2.886   3.031   2.649
 4450SOL    HW113436   2.876   2.965   2.718
 4450SOL    HW213437   2.809   3.087   2.660
 4451SOL     OW13438   3.749   4.615   3.720
 4451SOL    HW113439   3.759   4.640   3.628
 4451SOL    HW213440   3.780   4.692   3.769
 4452SOL     OW13441   2.927   2.576   2.568
 4452SOL    HW113442   2.967   2.564   2.481
 4452SOL    HW213443   3.001   2.593   2.626
 4453SOL     OW13444   2.714   4.138   3.551
 4453SOL    HW113445   2.765   4.059   3.570
 4453SOL    HW213446   2.716   4.145   3.455
 4454SOL     OW13447   3.777   3.375   2.911
 4454SOL    HW113448   3.868   3.397   2.894
 4454SOL    HW213449   3.727   3.449   2.876
 4455SOL     OW13450   4.422   4.816   2.832
 4455SOL    HW113451   4.405   4.728   2.797
 4455SOL    HW213452   4.429   4.872   2.754
 4456SOL     OW13453   3.414   2.854   2.700
 4456SOL    HW113454   3.456   2.919   2.644
 4456SOL    HW213455   3.361   2.801   2.640
 4457SOL     OW13456   4.743   4.093   3.649
 4457SOL    HW113457   4.649   4.106   3.641
 4457SOL    HW213458   4.780   4.138   3.573
 4458SOL     OW13459   3.558   3.283   3.809
 4458SOL    HW113460   3.509   3.303   3.889
 4458SOL    HW213461   3.650   3.295   3.834
 4459SOL     OW13462   2.793   2.801   3.482
 4459SOL    HW113463   2.733   2.872   3.505
 4459SOL    HW213464   2.841   2.834   3.406
 4460SOL     OW13465   4.475   4.953   2.579
 4460SOL    HW113466   4.431   4.919   2.501
 4460SOL    HW213467   4.530   5.024   2.546
 4461SOL     OW13468   4.419   4.373   3.788
 4461SOL    HW113469   4.442   4.333   3.704
 4461SOL    HW213470   4.324   4.364   3.794
 4462SOL     OW13471   2.764   2.891   3.793
 4462SOL    HW113472   2.784   2.902   3.700
 4462SOL    HW213473   2.849   2.880   3.835
 4463SOL     OW13474   4.042   4.955   2.798
 4463SOL    HW113475   4.088   5.036   2.819
 4463SOL    HW213476   4.108   4.899   2.757
 4464SOL     OW13477   3.142   4.944   3.126
 4464SOL    HW113478   3.234   4.962   3.110
 4464SOL    HW213479   3.112   4.898   3.047
 4465SOL     OW13480   2.633   4.492   4.324
 4465SOL    HW113481   2.564   4.542   4.280
 4465SOL    HW213482   2.664   4.430   4.258
 4466SOL     OW13483   3.268   3.584   2.575
 4466SOL    HW113484   3.231   3.673   2.579
 4466SOL    HW213485   3.197   3.530   2.542
 4467SOL     OW13486   4.808   2.842   3.039
 4467SOL    HW113487   4.806   2.794   2.957
 4467SOL    HW213488   4.851   2.782   3.100
 4468SOL     OW13489   2.671   3.458   2.598
 4468SOL    HW113490   2.653   3.541   2.640
 4468SOL    HW213491   2.611   3.454   2.524
 4469SOL     OW13492   4.469   4.680   3.731
 4469SOL    HW113493   4.423   4.672   3.815
 4469SOL    HW213494   4.403   4.658   3.665
 4470SOL     OW13495   3.685   3.570   2.728
 4470SOL    HW113496   3.764   3.625   2.735
 4470SOL    HW213497   3.624   3.622   2.676
 4471SOL     OW13498   4.141   4.018   2.718
 4471SOL    HW113499   4.150   3.956   2.646
 4471SOL    HW213500   4.067   4.074   2.693
 4472SOL     OW13501   2.533   2.498   3.489
 4472SOL    HW113502   2.539   2.404   3.468
 4472SOL    HW213503   2.441   2.519   3.474
 4473SOL     OW13504   3.790   3.032   2.515
 4473SOL    HW113505   3.754   3.094   2.578
 4473SOL    HW213506   3.871   3.001   2.554
 4474SOL     OW13507   3.241   4.267   3.539
 4474SOL    HW113508   3.336   4.261   3.553
 4474SOL    HW213509   3.208   4.308   3.619
 4475SOL     OW13510   4.456   4.073   3.690
 4475SOL    HW113511   4.471   3.999   3.749
 4475SOL    HW213512   4.361   4.080   3.684
 4476SOL     OW13513   4.584   2.671   3.962
 4476SOL    HW113514   4.549   2.594   3.916
 4476SOL    HW213515   4.675   2.677   3.933
 4477SOL     OW13516   3.362   4.608   3.488
 4477SOL    HW113517   3.271   4.617   3.516
 4477SOL    HW213518   3.361   4.632   3.396
 4478SOL     OW13519   4.645   2.838   3.514
 4478SOL    HW113520   4.567   2.803   3.557
 4478SOL    HW213521   4.617   2.924   3.481
 4479SOL     OW13522   3.383   2.860   3.975
 4479SOL    HW113523   3.343   2.943   3.952
 4479SOL    HW213524   3.448   2.844   3.906
 4480SOL     OW13525   4.557   3.851   2.845
 4480SOL    HW113526   4.497   3.781   2.822
 4480SOL    HW213527   4.615   3.813   2.910
 4481SOL     OW13528   3.422   3.370   3.437
 4481SOL    HW113529   3.418   3.283   3.478
 4481SOL    HW213530   3.467   3.355   3.354
 4482SOL     OW13531   4.830   3.506   4.631
 4482SOL    HW113532   4.838   3.464   4.545
 4482SOL    HW213533   4.740   3.537   4.635
 4483SOL     OW13534   4.129   4.872   3.537
 4483SOL    HW113535   4.106   4.916   3.619
 4483SOL    HW213536   4.045   4.862   3.491
 4484SOL     OW13537   3.217   3.588   3.517
 4484SOL    HW113538   3.273   3.524   3.472
 4484SOL    HW213539   3.251   3.591   3.606
 4485SOL     OW13540   3.062   4.709   3.547
 4485SOL    HW113541   3.057   4.757   3.464
 4485SOL    HW213542   2.978   4.662   3.552
 4486SOL     OW13543   3.154   3.056   2.723
 4486SOL    HW113544   3.158   3.082   2.815
 4486SOL    HW213545   3.070   3.011   2.714
 4487SOL     OW13546   3.711   4.856   3.834
 4487SOL    HW113547   3.772   4.906   3.889
 4487SOL    HW213548   3.650   4.815   3.897
 4488SOL     OW13549   4.145   3.155   4.230
 4488SOL    HW113550   4.052   3.165   4.253
 4488SOL    HW213551   4.184   3.113   4.306
 4489SOL     OW13552   3.815   4.633   3.458
 4489SOL    HW113553   3.877   4.596   3.394
 4489SOL    HW213554   3.821   4.727   3.445
 4490SOL     OW13555   2.760   4.905   4.745
 4490SOL    HW113556   2.684   4.899   4.687
 4490SOL    HW213557   2.785   4.814   4.760
 4491SOL     OW13558   3.532   3.595   3.343
 4491SOL    HW113559   3.627   3.605   3.338
 4491SOL    HW213560   3.519   3.521   3.401
 4492SOL     OW13561   4.530   3.366   2.917
 4492SOL    HW113562   4.445   3.347   2.877
 4492SOL    HW213563   4.582   3.287   2.900
 4493SOL     OW13564   4.173   4.304   3.712
 4493SOL    HW113565   4.178   4.209   3.710
 4493SOL    HW213566   4.083   4.323   3.738
 4494SOL     OW13567   4.295   2.775   3.941
 4494SOL    HW113568   4.353   2.747   4.012
 4494SOL    HW213569   4.210   2.788   3.983
 4495SOL     OW13570   4.313   3.324   4.071
 4495SOL    HW113571   4.292   3.318   3.978
 4495SOL    HW213572   4.246   3.271   4.114
 4496SOL     OW13573   2.913   3.232   4.866
 4496SOL    HW113574   2.844   3.263   4.807
 4496SOL    HW213575   2.890   3.141   4.884
 4497SOL     OW13576   3.495   2.896   3.364
 4497SOL    HW113577   3.434   2.852   3.423
 4497SOL    HW213578   3.476   2.859   3.278
 4498SOL     OW13579   2.709   3.550   3.731
 4498SOL    HW113580   2.679   3.460   3.747
 4498SOL    HW213581   2.712   3.590   3.818
 4499SOL     OW13582   4.457   4.884   4.120
 4499SOL    HW113583   4.535   4.903   4.172
 4499SOL    HW213584   4.388   4.936   4.161
 4500SOL     OW13585   4.724   3.077   3.368
 4500SOL    HW113586   4.817   3.076   3.345
 4500SOL    HW213587   4.696   3.167   3.349
 4501SOL     OW13588   3.401   3.183   2.771
 4501SOL    HW113589   3.338   3.256   2.774
 4501SOL    HW213590   3.365   3.123   2.706
 4502SOL     OW13591   4.282   4.220   4.901
 4502SOL    HW113592   4.318   4.137   4.932
 4502SOL    HW213593   4.339   4.245   4.829
 4503SOL     OW13594   4.711   3.604   4.207
 4503SOL    HW113595   4.769   3.532   4.232
 4503SOL    HW213596   4.623   3.566   4.212
 4504SOL     OW13597   3.178   3.191   4.233
 4504SOL    HW113598   3.235   3.146   4.296
 4504SOL    HW213599   3.187   3.284   4.255
 4505SOL     OW13600   4.296   4.698   4.401
 4505SOL    HW113601   4.385   4.668   4.419
 4505SOL    HW213602   4.299   4.732   4.312
 4506SOL     OW13603   4.778   3.350   3.319
 4506SOL    HW113604   4.832   3.329   3.243
 4506SOL    HW213605   4.688   3.340   3.289
 4507SOL     OW13606   4.219   2.495   4.271
 4507SOL    HW113607   4.184   2.453   4.349
 4507SOL    HW213608   4.147   2.547   4.237
 4508SOL     OW13609   4.848   2.636   3.865
 4508SOL    HW113610   4.942   2.648   3.874
 4508SOL    HW213611   4.838   2.559   3.810
 4509SOL     OW13612   3.742   4.373   3.507
 4509SOL    HW113613   3.799   4.321   3.564
 4509SOL    HW213614   3.770   4.463   3.521
 4510SOL     OW13615   4.655   4.493   3.645
 4510SOL    HW113616   4.604   4.553   3.700
 4510SOL    HW213617   4.589   4.448   3.591
 4511SOL     OW13618   3.598   4.125   3.634
 4511SOL    HW113619   3.548   4.204   3.656
 4511SOL    HW213620   3.687   4.144   3.665
 4512SOL     OW13621   3.952   3.095   3.013
 4512SOL    HW113622   4.035   3.142   3.009
 4512SOL    HW213623   3.927   3.100   3.105
 4513SOL     OW13624   4.805   3.514   2.667
 4513SOL    HW113625   4.878   3.567   2.633
 4513SOL    HW213626   4.831   3.424   2.650
 4514SOL     OW13627   2.846   4.275   2.686
 4514SOL    HW113628   2.857   4.216   2.611
 4514SOL    HW213629   2.841   4.218   2.762
 4515SOL     OW13630   2.498   4.690   3.912
 4515SOL    HW113631   2.454   4.608   3.890
 4515SOL    HW213632   2.574   4.692   3.854
 4516SOL     OW13633   4.595   2.937   3.165
 4516SOL    HW113634   4.665   2.903   3.111
 4516SOL    HW213635   4.639   2.979   3.239
 4517SOL     OW13636   3.112   4.409   4.160
 4517SOL    HW113637   3.084   4.488   4.113
 4517SOL    HW213638   3.178   4.440   4.223
 4518SOL     OW13639   3.582   3.605   4.540
 4518SOL    HW113640   3.570   3.612   4.445
 4518SOL    HW213641   3.536   3.524   4.564
 4519SOL     OW13642   2.543   4.643   2.533
 4519SOL    HW113643   2.488   4.706   2.579
 4519SOL    HW213644   2.624   4.641   2.584
 4520SOL     OW13645   3.823   6.557   0.888
 4520SOL    HW113646   3.886   6.527   0.953
 4520SOL    HW213647   3.774   6.626   0.933
 4521SOL     OW13648   4.497   6.288   1.665
 4521SOL    HW113649   4.553   6.261   1.592
 4521SOL    HW213650   4.545   6.262   1.743
 4522SOL     OW13651   4.715   5.620   1.662
 4522SOL    HW113652   4.645   5.563   1.695
 4522SOL    HW213653   4.768   5.562   1.607
 4523SOL     OW13654   4.438   6.276   1.280
 4523SOL    HW113655   4.377   6.206   1.301
 4523SOL    HW213656   4.508   6.268   1.345
 4524SOL     OW13657   4.358   6.488   1.527
 4524SOL    HW113658   4.407   6.415   1.563
 4524SOL    HW213659   4.301   6.517   1.599
 4525SOL     OW13660   3.920   5.180   2.188
 4525SOL    HW113661   3.843   5.228   2.219
 4525SOL    HW213662   3.993   5.217   2.238
 4526SOL     OW13663   2.874   5.908   0.777
 4526SOL    HW113664   2.942   5.959   0.734
 4526SOL    HW213665   2.865   5.950   0.863
 4527SOL     OW13666   4.200   5.697   0.485
 4527SOL    HW113667   4.196   5.785   0.522
 4527SOL    HW213668   4.214   5.711   0.392
 4528SOL     OW13669   4.102   5.249   1.119
 4528SOL    HW113670   4.119   5.339   1.149
 4528SOL    HW213671   4.188   5.218   1.090
 4529SOL     OW13672   4.376   4.995   1.059
 4529SOL    HW113673   4.303   4.948   1.099
 4529SOL    HW213674   4.441   4.928   1.041
 4530SOL     OW13675   4.103   4.996   1.323
 4530SOL    HW113676   4.146   5.081   1.333
 4530SOL    HW213677   4.030   4.999   1.386
 4531SOL     OW13678   4.817   6.234   0.892
 4531SOL    HW113679   4.883   6.171   0.863
 4531SOL    HW213680   4.868   6.308   0.924
 4532SOL     OW13681   4.291   6.226   2.275
 4532SOL    HW113682   4.321   6.136   2.288
 4532SOL    HW213683   4.363   6.280   2.307
 4533SOL     OW13684   4.714   5.622   0.400
 4533SOL    HW113685   4.727   5.554   0.466
 4533SOL    HW213686   4.791   5.615   0.344
 4534SOL     OW13687   3.190   6.477   0.672
 4534SOL    HW113688   3.160   6.514   0.755
 4534SOL    HW213689   3.285   6.472   0.681
 4535SOL     OW13690   3.051   5.701   0.778
 4535SOL    HW113691   3.104   5.718   0.856
 4535SOL    HW213692   2.992   5.776   0.773
 4536SOL     OW13693   2.621   6.374   0.733
 4536SOL    HW113694   2.560   6.414   0.796
 4536SOL    HW213695   2.564   6.327   0.672
 4537SOL     OW13696   3.680   5.384   2.141
 4537SOL    HW113697   3.685   5.344   2.055
 4537SOL    HW213698   3.689   5.478   2.125
 4538SOL     OW13699   4.512   6.041   2.120
 4538SOL    HW113700   4.463   6.030   2.201
 4538SOL    HW213701   4.481   5.972   2.063
 4539SOL     OW13702   4.771   6.394   2.446
 4539SOL    HW113703   4.857   6.352   2.441
 4539SOL    HW213704   4.787   6.485   2.423
 4540SOL     OW13705   4.448   5.956   1.791
 4540SOL    HW113706   4.411   5.901   1.722
 4540SOL    HW213707   4.422   5.913   1.873
 4541SOL     OW13708   4.333   5.282   1.804
 4541SOL    HW113709   4.244   5.248   1.801
 4541SOL    HW213710   4.370   5.245   1.884
 4542SOL     OW13711   4.260   5.904   1.147
 4542SOL    HW113712   4.233   5.984   1.191
 4542SOL    HW213713   4.355   5.901   1.160
 4543SOL     OW13714   4.059   5.735   1.059
 4543SOL    HW113715   4.112   5.798   1.109
 4543SOL    HW213716   3.995   5.790   1.012
 4544SOL     OW13717   3.365   5.982   1.880
 4544SOL    HW113718   3.306   5.953   1.949
 4544SOL    HW213719   3.352   6.077   1.874
 4545SOL     OW13720   2.835   5.109   2.075
 4545SOL    HW113721   2.831   5.052   2.152
 4545SOL    HW213722   2.853   5.050   2.002
 4546SOL     OW13723   3.778   6.493   2.249
 4546SOL    HW113724   3.814   6.404   2.240
 4546SOL    HW213725   3.830   6.546   2.189
 4547SOL     OW13726   3.312   5.420   0.499
 4547SOL    HW113727   3.350   5.428   0.412
 4547SOL    HW213728   3.268   5.503   0.514
 4548SOL     OW13729   2.923   6.424   0.582
 4548SOL    HW113730   3.001   6.438   0.635
 4548SOL    HW213731   2.894   6.335   0.604
 4549SOL     OW13732   4.942   5.160   0.710
 4549SOL    HW113733   4.958   5.074   0.671
 4549SOL    HW213734   5.024   5.208   0.696
 4550SOL     OW13735   2.753   6.132   0.563
 4550SOL    HW113736   2.667   6.160   0.531
 4550SOL    HW213737   2.764   6.043   0.529
 4551SOL     OW13738   4.040   5.963   1.908
 4551SOL    HW113739   4.124   6.004   1.924
 4551SOL    HW213740   4.042   5.883   1.962
 4552SOL     OW13741   2.550   5.463   1.792
 4552SOL    HW113742   2.566   5.436   1.702
 4552SOL    HW213743   2.465   5.425   1.814
 4553SOL     OW13744   3.935   5.141   1.926
 4553SOL    HW113745   3.938   5.148   2.022
 4553SOL    HW213746   3.860   5.084   1.909
 4554SOL     OW13747   3.764   6.417   0.527
 4554SOL    HW113748   3.722   6.414   0.613
 4554SOL    HW213749   3.826   6.490   0.533
 4555SOL     OW13750   4.397   5.417   0.494
 4555SOL    HW113751   4.329   5.410   0.561
 4555SOL    HW213752   4.479   5.413   0.543
 4556SOL     OW13753   3.345   6.397   2.194
 4556SOL    HW113754   3.322   6.448   2.117
 4556SOL    HW213755   3.300   6.314   2.182
 4557SOL     OW13756   4.749   5.968   1.069
 4557SOL    HW113757   4.737   5.935   0.980
 4557SOL    HW213758   4.830   6.020   1.065
 4558SOL     OW13759   4.880   5.877   1.801
 4558SOL    HW113760   4.901   5.839   1.716
 4558SOL    HW213761   4.866   5.802   1.859
 4559SOL     OW13762   4.516   5.839   0.742
 4559SOL    HW113763   4.438   5.786   0.761
 4559SOL    HW213764   4.511   5.856   0.648
 4560SOL     OW13765   3.562   5.080   1.158
 4560SOL    HW113766   3.646   5.092   1.114
 4560SOL    HW213767   3.575   5.007   1.217
 4561SOL     OW13768   4.138   5.138   0.600
 4561SOL    HW113769   4.147   5.074   0.671
 4561SOL    HW213770   4.205   5.112   0.536
 4562SOL     OW13771   3.694   6.427   0.022
 4562SOL    HW113772   3.666   6.343  -0.014
 4562SOL    HW213773   3.731   6.474  -0.052
 4563SOL     OW13774   4.275   6.123   1.964
 4563SOL    HW113775   4.215   6.186   2.006
 4563SOL    HW213776   4.361   6.165   1.970
 4564SOL     OW13777   4.136   6.294   0.029
 4564SOL    HW113778   4.070   6.228   0.009
 4564SOL    HW213779   4.163   6.328  -0.056
 4565SOL     OW13780   3.040   5.467   1.647
 4565SOL    HW113781   3.054   5.556   1.681
 4565SOL    HW213782   3.084   5.410   1.710
 4566SOL     OW13783   3.769   5.273   0.888
 4566SOL    HW113784   3.787   5.249   0.797
 4566SOL    HW213785   3.694   5.332   0.883
 4567SOL     OW13786   2.733   5.223   1.749
 4567SOL    HW113787   2.758   5.216   1.842
 4567SOL    HW213788   2.741   5.316   1.729
 4568SOL     OW13789   3.136   5.310   1.854
 4568SOL    HW113790   3.093   5.309   1.940
 4568SOL    HW213791   3.133   5.219   1.825
 4569SOL     OW13792   4.217   5.491   1.988
 4569SOL    HW113793   4.213   5.463   2.079
 4569SOL    HW213794   4.274   5.427   1.945
 4570SOL     OW13795   2.859   6.099   1.919
 4570SOL    HW113796   2.801   6.064   1.851
 4570SOL    HW213797   2.928   6.033   1.927
 4571SOL     OW13798   2.975   5.251   1.487
 4571SOL    HW113799   2.996   5.193   1.559
 4571SOL    HW213800   2.997   5.339   1.519
 4572SOL     OW13801   3.230   5.577   1.434
 4572SOL    HW113802   3.211   5.656   1.384
 4572SOL    HW213803   3.156   5.569   1.496
 4573SOL     OW13804   4.853   5.704   1.996
 4573SOL    HW113805   4.940   5.667   2.010
 4573SOL    HW213806   4.802   5.633   1.957
 4574SOL     OW13807   3.116   5.231   0.520
 4574SOL    HW113808   3.193   5.286   0.529
 4574SOL    HW213809   3.098   5.200   0.608
 4575SOL     OW13810   2.555   5.393   2.190
 4575SOL    HW113811   2.548   5.308   2.148
 4575SOL    HW213812   2.581   5.453   2.119
 4576SOL     OW13813   4.831   5.476   0.165
 4576SOL    HW113814   4.864   5.431   0.088
 4576SOL    HW213815   4.864   5.425   0.239
 4577SOL     OW13816   4.084   5.337   2.453
 4577SOL    HW113817   4.150   5.282   2.496
 4577SOL    HW213818   4.079   5.415   2.507
 4578SOL     OW13819   3.885   6.232   1.901
 4578SOL    HW113820   3.922   6.281   1.974
 4578SOL    HW213821   3.902   6.140   1.923
 4579SOL     OW13822   4.827   5.671   1.365
 4579SOL    HW113823   4.862   5.584   1.348
 4579SOL    HW213824   4.744   5.674   1.318
 4580SOL     OW13825   3.096   5.992   1.760
 4580SOL    HW113826   3.158   6.039   1.704
 4580SOL    HW213827   3.011   6.005   1.717
 4581SOL     OW13828   4.108   6.223   0.363
 4581SOL    HW113829   4.025   6.266   0.343
 4581SOL    HW213830   4.171   6.263   0.303
 4582SOL     OW13831   2.913   5.529   1.943
 4582SOL    HW113832   2.915   5.510   1.849
 4582SOL    HW213833   2.943   5.448   1.985
 4583SOL     OW13834   4.588   5.815   1.537
 4583SOL    HW113835   4.496   5.813   1.562
 4583SOL    HW213836   4.630   5.750   1.594
 4584SOL     OW13837   3.598   6.083   1.460
 4584SOL    HW113838   3.677   6.135   1.475
 4584SOL    HW213839   3.620   5.996   1.493
 4585SOL     OW13840   4.820   6.274   1.238
 4585SOL    HW113841   4.911   6.292   1.217
 4585SOL    HW213842   4.773   6.354   1.216
 4586SOL     OW13843   4.572   6.707   1.850
 4586SOL    HW113844   4.599   6.645   1.917
 4586SOL    HW213845   4.476   6.700   1.847
 4587SOL     OW13846   4.414   5.245   1.156
 4587SOL    HW113847   4.397   5.264   1.249
 4587SOL    HW213848   4.418   5.149   1.152
 4588SOL     OW13849   3.101   5.334   1.137
 4588SOL    HW113850   3.063   5.246   1.135
 4588SOL    HW213851   3.028   5.391   1.160
 4589SOL     OW13852   2.998   5.447   0.728
 4589SOL    HW113853   3.074   5.389   0.726
 4589SOL    HW213854   3.026   5.521   0.781
 4590SOL     OW13855   3.921   6.140   2.379
 4590SOL    HW113856   3.866   6.083   2.433
 4590SOL    HW213857   3.999   6.087   2.360
 4591SOL     OW13858   4.548   5.841   1.205
 4591SOL    HW113859   4.617   5.894   1.165
 4591SOL    HW213860   4.573   5.836   1.298
 4592SOL     OW13861   3.661   5.587   0.856
 4592SOL    HW113862   3.639   5.620   0.769
 4592SOL    HW213863   3.606   5.509   0.867
 4593SOL     OW13864   3.806   5.881   1.401
 4593SOL    HW113865   3.853   5.810   1.445
 4593SOL    HW213866   3.855   5.960   1.425
 4594SOL     OW13867   3.076   5.942   2.390
 4594SOL    HW113868   2.987   5.976   2.377
 4594SOL    HW213869   3.065   5.848   2.402
 4595SOL     OW13870   2.575   6.375   1.457
 4595SOL    HW113871   2.509   6.354   1.523
 4595SOL    HW213872   2.550   6.462   1.425
 4596SOL     OW13873   2.796   5.693   1.686
 4596SOL    HW113874   2.703   5.676   1.673
 4596SOL    HW213875   2.836   5.674   1.601
 4597SOL     OW13876   4.497   5.456   1.394
 4597SOL    HW113877   4.506   5.450   1.299
 4597SOL    HW213878   4.447   5.378   1.418
 4598SOL     OW13879   2.503   5.564   0.431
 4598SOL    HW113880   2.550   5.492   0.473
 4598SOL    HW213881   2.565   5.599   0.367
 4599SOL     OW13882   2.540   5.859   0.987
 4599SOL    HW113883   2.462   5.810   0.960
 4599SOL    HW213884   2.534   5.941   0.938
 4600SOL     OW13885   2.992   5.994   0.358
 4600SOL    HW113886   2.949   6.077   0.336
 4600SOL    HW213887   2.937   5.927   0.317
 4601SOL     OW13888   3.537   5.853   1.693
 4601SOL    HW113889   3.617   5.906   1.699
 4601SOL    HW213890   3.475   5.897   1.750
 4602SOL     OW13891   2.828   5.960   1.663
 4602SOL    HW113892   2.755   6.007   1.624
 4602SOL    HW213893   2.834   5.879   1.613
 4603SOL     OW13894   2.639   5.072   1.400
 4603SOL    HW113895   2.652   5.067   1.305
 4603SOL    HW213896   2.715   5.120   1.432
 4604SOL     OW13897   2.756   5.842   2.171
 4604SOL    HW113898   2.781   5.934   2.186
 4604SOL    HW213899   2.780   5.825   2.080
 4605SOL     OW13900   4.164   6.364   0.610
 4605SOL    HW113901   4.181   6.321   0.526
 4605SOL    HW213902   4.178   6.457   0.593
 4606SOL     OW13903   3.463   6.288   1.594
 4606SOL    HW113904   3.520   6.324   1.661
 4606SOL    HW213905   3.504   6.206   1.568
 4607SOL     OW13906   3.334   5.213   1.015
 4607SOL    HW113907   3.391   5.174   1.081
 4607SOL    HW213908   3.254   5.236   1.063
 4608SOL     OW13909   4.528   6.482   2.237
 4608SOL    HW113910   4.562   6.406   2.285
 4608SOL    HW213911   4.595   6.500   2.171
 4609SOL     OW13912   4.814   5.963   1.476
 4609SOL    HW113913   4.735   5.931   1.520
 4609SOL    HW213914   4.825   5.905   1.401
 4610SOL     OW13915   4.572   6.245   1.946
 4610SOL    HW113916   4.620   6.180   1.895
 4610SOL    HW213917   4.552   6.201   2.029
 4611SOL     OW13918   2.509   5.824   2.336
 4611SOL    HW113919   2.580   5.769   2.303
 4611SOL    HW213920   2.451   5.835   2.261
 4612SOL     OW13921   3.182   5.655   1.021
 4612SOL    HW113922   3.239   5.579   1.008
 4612SOL    HW213923   3.208   5.691   1.106
 4613SOL     OW13924   2.562   6.191   0.072
 4613SOL    HW113925   2.539   6.178  -0.020
 4613SOL    HW213926   2.650   6.228   0.070
 4614SOL     OW13927   4.679   5.493   1.961
 4614SOL    HW113928   4.639   5.487   1.874
 4614SOL    HW213929   4.664   5.407   2.000
 4615SOL     OW13930   3.519   5.497   2.471
 4615SOL    HW113931   3.612   5.517   2.479
 4615SOL    HW213932   3.516   5.415   2.423
 4616SOL     OW13933   2.504   5.156   2.057
 4616SOL    HW113934   2.518   5.068   2.093
 4616SOL    HW213935   2.492   5.142   1.963
 4617SOL     OW13936   4.712   6.391   0.651
 4617SOL    HW113937   4.739   6.358   0.737
 4617SOL    HW213938   4.622   6.422   0.664
 4618SOL     OW13939   3.153   5.673   0.521
 4618SOL    HW113940   3.203   5.754   0.525
 4618SOL    HW213941   3.132   5.653   0.612
 4619SOL     OW13942   2.614   4.977   0.281
 4619SOL    HW113943   2.611   4.984   0.185
 4619SOL    HW213944   2.702   4.942   0.299
 4620SOL     OW13945   2.754   5.703   0.976
 4620SOL    HW113946   2.681   5.765   0.982
 4620SOL    HW213947   2.808   5.736   0.904
 4621SOL     OW13948   3.603   5.309   0.389
 4621SOL    HW113949   3.679   5.313   0.332
 4621SOL    HW213950   3.528   5.306   0.329
 4622SOL     OW13951   4.963   5.732   0.648
 4622SOL    HW113952   4.990   5.816   0.610
 4622SOL    HW213953   4.985   5.667   0.581
 4623SOL     OW13954   2.589   6.092   1.486
 4623SOL    HW113955   2.595   6.184   1.460
 4623SOL    HW213956   2.496   6.073   1.486
 4624SOL     OW13957   2.607   5.445   1.062
 4624SOL    HW113958   2.578   5.487   0.982
 4624SOL    HW213959   2.528   5.432   1.113
 4625SOL     OW13960   3.154   5.950   2.068
 4625SOL    HW113961   3.180   5.873   2.117
 4625SOL    HW213962   3.086   5.919   2.008
 4626SOL     OW13963   3.968   6.076   1.261
 4626SOL    HW113964   3.945   5.996   1.215
 4626SOL    HW213965   3.886   6.126   1.264
 4627SOL     OW13966   2.935   6.264   0.340
 4627SOL    HW113967   3.026   6.269   0.368
 4627SOL    HW213968   2.895   6.344   0.376
 4628SOL     OW13969   4.402   5.976   2.360
 4628SOL    HW113970   4.469   5.970   2.428
 4628SOL    HW213971   4.379   5.885   2.340
 4629SOL     OW13972   3.899   5.555   1.848
 4629SOL    HW113973   3.850   5.480   1.815
 4629SOL    HW213974   3.851   5.584   1.925
 4630SOL     OW13975   4.291   5.707   0.776
 4630SOL    HW113976   4.234   5.722   0.852
 4630SOL    HW213977   4.257   5.627   0.737
 4631SOL     OW13978   2.856   6.109   2.348
 4631SOL    HW113979   2.783   6.144   2.297
 4631SOL    HW213980   2.850   6.154   2.432
 4632SOL     OW13981   2.529   5.085   1.649
 4632SOL    HW113982   2.601   5.143   1.671
 4632SOL    HW213983   2.545   5.060   1.558
 4633SOL     OW13984   3.417   5.604   1.153
 4633SOL    HW113985   3.418   5.662   1.229
 4633SOL    HW213986   3.503   5.561   1.155
 4634SOL     OW13987   3.262   5.638   2.474
 4634SOL    HW113988   3.202   5.605   2.542
 4634SOL    HW213989   3.336   5.578   2.477
 4635SOL     OW13990   3.046   5.386   2.445
 4635SOL    HW113991   2.984   5.444   2.489
 4635SOL    HW213992   3.002   5.362   2.364
 4636SOL     OW13993   3.793   6.213   0.894
 4636SOL    HW113994   3.885   6.228   0.871
 4636SOL    HW213995   3.744   6.250   0.820
 4637SOL     OW13996   3.775   6.739   0.444
 4637SOL    HW113997   3.793   6.826   0.410
 4637SOL    HW213998   3.693   6.713   0.402
 4638SOL     OW13999   4.012   5.950   1.635
 4638SOL    HW114000   4.033   5.947   1.728
 4638SOL    HW214001   4.021   5.859   1.605
 4639SOL     OW14002   2.728   6.330   1.761
 4639SOL    HW114003   2.694   6.243   1.781
 4639SOL    HW214004   2.671   6.362   1.691
 4640SOL     OW14005   3.534   6.526   1.474
 4640SOL    HW114006   3.496   6.438   1.465
 4640SOL    HW214007   3.473   6.583   1.427
 4641SOL     OW14008   4.051   6.243   0.843
 4641SOL    HW114009   4.124   6.236   0.905
 4641SOL    HW214010   4.088   6.291   0.768
 4642SOL     OW14011   4.379   5.827   2.007
 4642SOL    HW114012   4.296   5.788   2.035
 4642SOL    HW214013   4.446   5.769   2.043
 4643SOL     OW14014   3.090   6.040   0.630
 4643SOL    HW114015   3.063   6.025   0.540
 4643SOL    HW214016   3.185   6.029   0.629
 4644SOL     OW14017   2.904   5.677   0.434
 4644SOL    HW114018   2.986   5.674   0.485
 4644SOL    HW214019   2.932   5.698   0.345
 4645SOL     OW14020   4.750   5.093   0.930
 4645SOL    HW114021   4.715   5.179   0.953
 4645SOL    HW214022   4.821   5.111   0.868
 4646SOL     OW14023   3.169   5.074   0.295
 4646SOL    HW114024   3.212   5.109   0.218
 4646SOL    HW214025   3.158   5.149   0.353
 4647SOL     OW14026   3.167   6.521   1.953
 4647SOL    HW114027   3.120   6.438   1.944
 4647SOL    HW214028   3.123   6.566   2.025
 4648SOL     OW14029   4.333   5.064   0.436
 4648SOL    HW114030   4.388   4.985   0.438
 4648SOL    HW214031   4.389   5.131   0.398
 4649SOL     OW14032   4.229   5.447   2.243
 4649SOL    HW114033   4.290   5.374   2.253
 4649SOL    HW214034   4.149   5.417   2.286
 4650SOL     OW14035   2.503   5.527   0.823
 4650SOL    HW114036   2.533   5.599   0.768
 4650SOL    HW214037   2.518   5.448   0.770
 4651SOL     OW14038   4.737   5.113   0.168
 4651SOL    HW114039   4.806   5.138   0.229
 4651SOL    HW214040   4.670   5.073   0.223
 4652SOL     OW14041   3.894   5.663   1.555
 4652SOL    HW114042   3.868   5.595   1.616
 4652SOL    HW214043   3.892   5.621   1.469
 4653SOL     OW14044   4.373   5.173   0.812
 4653SOL    HW114045   4.329   5.258   0.822
 4653SOL    HW214046   4.394   5.146   0.901
 4654SOL     OW14047   4.566   6.098   0.844
 4654SOL    HW114048   4.547   6.006   0.828
 4654SOL    HW214049   4.660   6.106   0.833
 4655SOL     OW14050   2.616   5.463   1.551
 4655SOL    HW114051   2.677   5.518   1.503
 4655SOL    HW214052   2.584   5.399   1.487
 4656SOL     OW14053   3.890   5.542   1.303
 4656SOL    HW114054   3.972   5.541   1.253
 4656SOL    HW214055   3.821   5.531   1.237
 4657SOL     OW14056   2.692   6.215   2.116
 4657SOL    HW114057   2.746   6.282   2.158
 4657SOL    HW214058   2.732   6.204   2.029
 4658SOL     OW14059   3.218   5.121   1.332
 4658SOL    HW114060   3.204   5.209   1.367
 4658SOL    HW214061   3.147   5.108   1.269
 4659SOL     OW14062   3.861   6.148   1.556
 4659SOL    HW114063   3.932   6.087   1.576
 4659SOL    HW214064   3.904   6.222   1.514
 4660SOL     OW14065   3.523   6.635   2.267
 4660SOL    HW114066   3.493   6.557   2.219
 4660SOL    HW214067   3.616   6.641   2.248
 4661SOL     OW14068   4.142   5.534   1.199
 4661SOL    HW114069   4.222   5.559   1.245
 4661SOL    HW214070   4.114   5.612   1.153
 4662SOL     OW14071   4.748   6.617   1.665
 4662SOL    HW114072   4.688   6.649   1.597
 4662SOL    HW214073   4.709   6.647   1.747
 4663SOL     OW14074   2.505   6.806   1.125
 4663SOL    HW114075   2.470   6.836   1.041
 4663SOL    HW214076   2.574   6.745   1.102
 4664SOL     OW14077   3.217   5.204   0.048
 4664SOL    HW114078   3.139   5.258   0.033
 4664SOL    HW214079   3.248   5.182  -0.040
 4665SOL     OW14080   3.580   5.316   1.289
 4665SOL    HW114081   3.563   5.232   1.246
 4665SOL    HW214082   3.624   5.369   1.223
 4666SOL     OW14083   4.676   6.242   1.464
 4666SOL    HW114084   4.725   6.241   1.381
 4666SOL    HW214085   4.723   6.181   1.520
 4667SOL     OW14086   2.900   5.799   1.947
 4667SOL    HW114087   2.914   5.705   1.950
 4667SOL    HW214088   2.867   5.815   1.858
 4668SOL     OW14089   2.747   6.278   0.939
 4668SOL    HW114090   2.838   6.249   0.934
 4668SOL    HW214091   2.729   6.316   0.852
 4669SOL     OW14092   3.519   5.283   0.645
 4669SOL    HW114093   3.582   5.299   0.575
 4669SOL    HW214094   3.435   5.311   0.610
 4670SOL     OW14095   2.776   5.369   2.360
 4670SOL    HW114096   2.699   5.396   2.312
 4670SOL    HW214097   2.787   5.276   2.339
 4671SOL     OW14098   3.931   5.582   0.816
 4671SOL    HW114099   3.836   5.590   0.829
 4671SOL    HW214100   3.969   5.614   0.898
 4672SOL     OW14101   3.155   5.199   0.783
 4672SOL    HW114102   3.127   5.107   0.787
 4672SOL    HW214103   3.218   5.208   0.855
 4673SOL     OW14104   4.562   5.023   0.649
 4673SOL    HW114105   4.486   5.079   0.667
 4673SOL    HW214106   4.619   5.036   0.725
 4674SOL     OW14107   3.133   6.319   0.048
 4674SOL    HW114108   3.108   6.388   0.110
 4674SOL    HW214109   3.120   6.359  -0.038
 4675SOL     OW14110   4.801   5.357   1.594
 4675SOL    HW114111   4.862   5.284   1.594
 4675SOL    HW214112   4.717   5.317   1.572
 4676SOL     OW14113   2.585   6.103   1.809
 4676SOL    HW114114   2.512   6.065   1.857
 4676SOL    HW214115   2.599   6.042   1.736
 4677SOL     OW14116   4.024   5.190   1.688
 4677SOL    HW114117   4.030   5.278   1.653
 4677SOL    HW214118   3.967   5.198   1.765
 4678SOL     OW14119   4.641   5.597   1.144
 4678SOL    HW114120   4.599   5.681   1.131
 4678SOL    HW214121   4.700   5.587   1.069
 4679SOL     OW14122   3.339   6.091   0.557
 4679SOL    HW114123   3.382   6.013   0.523
 4679SOL    HW214124   3.405   6.132   0.614
 4680SOL     OW14125   4.552   6.255   2.398
 4680SOL    HW114126   4.561   6.176   2.451
 4680SOL    HW214127   4.631   6.305   2.416
 4681SOL     OW14128   3.179   6.235   1.574
 4681SOL    HW114129   3.136   6.321   1.581
 4681SOL    HW214130   3.272   6.256   1.564
 4682SOL     OW14131   3.633   6.424   0.758
 4682SOL    HW114132   3.552   6.435   0.809
 4682SOL    HW214133   3.702   6.455   0.817
 4683SOL     OW14134   3.729   5.472   1.101
 4683SOL    HW114135   3.732   5.386   1.058
 4683SOL    HW214136   3.728   5.535   1.028
 4684SOL     OW14137   3.006   6.322   1.868
 4684SOL    HW114138   2.929   6.364   1.830
 4684SOL    HW214139   2.975   6.234   1.892
 4685SOL     OW14140   2.521   5.742   1.564
 4685SOL    HW114141   2.438   5.704   1.535
 4685SOL    HW214142   2.551   5.794   1.489
 4686SOL     OW14143   4.198   6.254   1.076
 4686SOL    HW114144   4.215   6.182   1.137
 4686SOL    HW214145   4.285   6.280   1.046
 4687SOL     OW14146   3.641   5.036   0.675
 4687SOL    HW114147   3.597   5.121   0.673
 4687SOL    HW214148   3.729   5.054   0.640
 4688SOL     OW14149   2.677   4.988   0.014
 4688SOL    HW114150   2.754   5.039   0.039
 4688SOL    HW214151   2.694   4.963  -0.077
 4689SOL     OW14152   4.079   5.729   2.048
 4689SOL    HW114153   4.113   5.640   2.034
 4689SOL    HW214154   4.041   5.726   2.136
 4690SOL     OW14155   3.380   6.638   1.873
 4690SOL    HW114156   3.292   6.602   1.888
 4690SOL    HW214157   3.436   6.589   1.933
 4691SOL     OW14158   3.218   5.722   2.196
 4691SOL    HW114159   3.233   5.697   2.288
 4691SOL    HW214160   3.146   5.665   2.168
 4692SOL     OW14161   3.471   6.236   1.088
 4692SOL    HW114162   3.523   6.223   1.009
 4692SOL    HW214163   3.395   6.285   1.058
 4693SOL     OW14164   4.075   5.418   1.552
 4693SOL    HW114165   4.043   5.454   1.469
 4693SOL    HW214166   4.092   5.495   1.606
 4694SOL     OW14167   2.583   5.783   1.270
 4694SOL    HW114168   2.589   5.816   1.181
 4694SOL    HW214169   2.492   5.755   1.279
 4695SOL     OW14170   4.315   5.519   0.249
 4695SOL    HW114171   4.394   5.496   0.200
 4695SOL    HW214172   4.337   5.500   0.340
 4696SOL     OW14173   4.173   5.939   0.624
 4696SOL    HW114174   4.231   6.014   0.638
 4696SOL    HW214175   4.207   5.871   0.681
 4697SOL     OW14176   3.773   6.266   1.281
 4697SOL    HW114177   3.770   6.341   1.341
 4697SOL    HW214178   3.686   6.265   1.240
 4698SOL     OW14179   2.936   6.007   1.019
 4698SOL    HW114180   3.002   5.972   1.079
 4698SOL    HW214181   2.882   6.065   1.074
 4699SOL     OW14182   2.848   6.388   2.230
 4699SOL    HW114183   2.940   6.383   2.207
 4699SOL    HW214184   2.814   6.461   2.177
 4700SOL     OW14185   4.342   6.140   0.646
 4700SOL    HW114186   4.403   6.143   0.720
 4700SOL    HW214187   4.297   6.224   0.649
 4701SOL     OW14188   3.129   6.019   1.426
 4701SOL    HW114189   3.205   6.074   1.410
 4701SOL    HW214190   3.080   6.065   1.494
 4702SOL     OW14191   4.219   6.096   1.326
 4702SOL    HW114192   4.126   6.088   1.303
 4702SOL    HW214193   4.219   6.110   1.421
 4703SOL     OW14194   3.710   5.093   1.764
 4703SOL    HW114195   3.624   5.102   1.722
 4703SOL    HW214196   3.707   5.007   1.805
 4704SOL     OW14197   4.761   6.018   0.480
 4704SOL    HW114198   4.673   5.981   0.483
 4704SOL    HW214199   4.785   6.017   0.387
 4705SOL     OW14200   4.935   5.208   0.333
 4705SOL    HW114201   4.996   5.254   0.391
 4705SOL    HW214202   4.974   5.121   0.321
 4706SOL     OW14203   2.854   6.283   1.409
 4706SOL    HW114204   2.905   6.323   1.480
 4706SOL    HW214205   2.769   6.327   1.414
 4707SOL     OW14206   3.726   5.200   2.454
 4707SOL    HW114207   3.724   5.142   2.530
 4707SOL    HW214208   3.810   5.246   2.461
 4708SOL     OW14209   3.409   6.523   0.363
 4708SOL    HW114210   3.337   6.468   0.393
 4708SOL    HW214211   3.445   6.561   0.444
 4709SOL     OW14212   4.152   5.378   0.750
 4709SOL    HW114213   4.119   5.298   0.708
 4709SOL    HW214214   4.076   5.436   0.753
 4710SOL     OW14215   3.232   5.895   0.298
 4710SOL    HW114216   3.144   5.926   0.316
 4710SOL    HW214217   3.264   5.952   0.228
 4711SOL     OW14218   2.734   5.012   0.808
 4711SOL    HW114219   2.672   5.026   0.880
 4711SOL    HW214220   2.682   4.969   0.740
 4712SOL     OW14221   3.721   5.374   1.788
 4712SOL    HW114222   3.687   5.392   1.700
 4712SOL    HW214223   3.746   5.282   1.786
 4713SOL     OW14224   2.987   6.209   0.834
 4713SOL    HW114225   2.999   6.151   0.760
 4713SOL    HW214226   3.049   6.177   0.900
 4714SOL     OW14227   3.075   5.049   1.802
 4714SOL    HW114228   3.113   5.017   1.720
 4714SOL    HW214229   2.981   5.046   1.787
 4715SOL     OW14230   2.616   5.589   2.023
 4715SOL    HW114231   2.609   5.561   1.931
 4715SOL    HW214232   2.704   5.627   2.030
 4716SOL     OW14233   4.294   6.125   1.608
 4716SOL    HW114234   4.385   6.154   1.623
 4716SOL    HW214235   4.291   6.038   1.647
 4717SOL     OW14236   4.034   5.954   0.381
 4717SOL    HW114237   4.054   6.047   0.371
 4717SOL    HW214238   4.087   5.926   0.455
 4718SOL     OW14239   2.762   5.069   1.137
 4718SOL    HW114240   2.783   5.141   1.077
 4718SOL    HW214241   2.685   5.027   1.097
 4719SOL     OW14242   2.741   5.521   0.604
 4719SOL    HW114243   2.805   5.503   0.673
 4719SOL    HW214244   2.778   5.596   0.556
 4720SOL     OW14245   2.889   5.821   0.196
 4720SOL    HW114246   2.941   5.778   0.128
 4720SOL    HW214247   2.816   5.860   0.148
 4721SOL     OW14248   3.760   5.983   1.740
 4721SOL    HW114249   3.846   5.954   1.771
 4721SOL    HW214250   3.780   6.045   1.670
 4722SOL     OW14251   2.899   6.436   1.173
 4722SOL    HW114252   2.846   6.366   1.212
 4722SOL    HW214253   2.980   6.436   1.224
 4723SOL     OW14254   4.369   5.129   2.014
 4723SOL    HW114255   4.329   5.133   2.101
 4723SOL    HW214256   4.316   5.066   1.966
 4724SOL     OW14257   3.227   6.341   1.031
 4724SOL    HW114258   3.163   6.332   1.102
 4724SOL    HW214259   3.212   6.264   0.976
 4725SOL     OW14260   4.931   6.235   0.554
 4725SOL    HW114261   4.888   6.152   0.532
 4725SOL    HW214262   4.860   6.294   0.579
 4726SOL     OW14263   2.811   6.282   0.087
 4726SOL    HW114264   2.872   6.257   0.157
 4726SOL    HW214265   2.822   6.377   0.079
 4727SOL     OW14266   4.536   5.435   1.722
 4727SOL    HW114267   4.475   5.364   1.741
 4727SOL    HW214268   4.511   5.466   1.634
 4728SOL     OW14269   2.895   5.301   0.352
 4728SOL    HW114270   2.901   5.211   0.322
 4728SOL    HW214271   2.971   5.311   0.410
 4729SOL     OW14272   3.848   5.160   1.115
 4729SOL    HW114273   3.938   5.180   1.140
 4729SOL    HW214274   3.841   5.193   1.025
 4730SOL     OW14275   3.043   5.052   1.092
 4730SOL    HW114276   2.973   5.017   1.148
 4730SOL    HW214277   3.026   5.013   1.006
 4731SOL     OW14278   3.522   5.855   2.482
 4731SOL    HW114279   3.494   5.935   2.527
 4731SOL    HW214280   3.472   5.785   2.524
 4732SOL     OW14281   4.960   6.367   1.939
 4732SOL    HW114282   5.035   6.329   1.985
 4732SOL    HW214283   4.959   6.323   1.854
 4733SOL     OW14284   3.348   6.260   1.856
 4733SOL    HW114285   3.289   6.329   1.826
 4733SOL    HW214286   3.436   6.295   1.838
 4734SOL     OW14287   3.010   5.310   2.088
 4734SOL    HW114288   2.956   5.231   2.086
 4734SOL    HW214289   3.078   5.291   2.153
 4735SOL     OW14290   3.383   5.839   0.512
 4735SOL    HW114291   3.350   5.853   0.423
 4735SOL    HW214292   3.449   5.771   0.502
 4736SOL     OW14293   3.137   5.798   1.302
 4736SOL    HW114294   3.048   5.778   1.272
 4736SOL    HW214295   3.127   5.878   1.353
 4737SOL     OW14296   2.874   6.671   0.464
 4737SOL    HW114297   2.964   6.703   0.459
 4737SOL    HW214298   2.874   6.610   0.538
 4738SOL     OW14299   3.364   6.134   1.308
 4738SOL    HW114300   3.441   6.122   1.362
 4738SOL    HW214301   3.395   6.183   1.232
 4739SOL     OW14302   3.398   5.180   1.713
 4739SOL    HW114303   3.345   5.227   1.777
 4739SOL    HW214304   3.385   5.229   1.632
 4740SOL     OW14305   4.867   6.360   1.677
 4740SOL    HW114306   4.808   6.435   1.664
 4740SOL    HW214307   4.809   6.284   1.678
 4741SOL     OW14308   3.425   6.502   0.936
 4741SOL    HW114309   3.340   6.485   0.976
 4741SOL    HW214310   3.480   6.533   1.008
 4742SOL     OW14311   4.465   6.326   0.979
 4742SOL    HW114312   4.485   6.328   1.073
 4742SOL    HW214313   4.500   6.243   0.949
 4743SOL     OW14314   3.481   5.852   2.207
 4743SOL    HW114315   3.385   5.857   2.202
 4743SOL    HW214316   3.500   5.860   2.301
 4744SOL     OW14317   2.662   5.260   0.575
 4744SOL    HW114318   2.718   5.337   0.583
 4744SOL    HW214319   2.723   5.187   0.568
 4745SOL     OW14320   4.081   6.301   1.672
 4745SOL    HW114321   4.028   6.256   1.737
 4745SOL    HW214322   4.158   6.246   1.661
 4746SOL     OW14323   3.138   6.194   2.214
 4746SOL    HW114324   3.100   6.140   2.284
 4746SOL    HW214325   3.133   6.139   2.136
 4747SOL     OW14326   2.724   5.836   0.527
 4747SOL    HW114327   2.752   5.853   0.617
 4747SOL    HW214328   2.791   5.778   0.492
 4748SOL     OW14329   3.962   6.405   1.094
 4748SOL    HW114330   3.902   6.343   1.136
 4748SOL    HW214331   4.035   6.350   1.063
 4749SOL     OW14332   2.528   6.140   2.301
 4749SOL    HW114333   2.592   6.143   2.230
 4749SOL    HW214334   2.462   6.078   2.271
 4750SOL     OW14335   2.740   6.505   2.000
 4750SOL    HW114336   2.744   6.463   1.914
 4750SOL    HW214337   2.689   6.584   1.986
 4751SOL     OW14338   4.330   5.729   2.292
 4751SOL    HW114339   4.397   5.700   2.229
 4751SOL    HW214340   4.274   5.652   2.304
 4752SOL     OW14341   3.821   6.442   1.469
 4752SOL    HW114342   3.754   6.510   1.481
 4752SOL    HW214343   3.856   6.429   1.557
 4753SOL     OW14344   3.996   6.344   2.137
 4753SOL    HW114345   4.044   6.421   2.166
 4753SOL    HW214346   3.982   6.293   2.217
 4754SOL     OW14347   3.749   5.370   1.506
 4754SOL    HW114348   3.673   5.313   1.488
 4754SOL    HW214349   3.747   5.434   1.435
 4755SOL     OW14350   2.558   6.086   0.832
 4755SOL    HW114351   2.628   6.113   0.890
 4755SOL    HW214352   2.585   6.117   0.745
 4756SOL     OW14353   3.110   6.253   1.266
 4756SOL    HW114354   3.183   6.216   1.316
 4756SOL    HW214355   3.035   6.197   1.287
 4757SOL     OW14356   4.064   5.908   2.381
 4757SOL    HW114357   4.118   5.900   2.302
 4757SOL    HW214358   3.994   5.843   2.369
 4758SOL     OW14359   3.531   5.600   1.834
 4758SOL    HW114360   3.538   5.657   1.758
 4758SOL    HW214361   3.565   5.516   1.803
 4759SOL     OW14362   2.927   5.537   1.134
 4759SOL    HW114363   2.994   5.562   1.070
 4759SOL    HW214364   2.845   5.567   1.095
 4760SOL     OW14365   3.202   6.312   0.428
 4760SOL    HW114366   3.246   6.237   0.467
 4760SOL    HW214367   3.171   6.363   0.503
 4761SOL     OW14368   3.586   6.514   2.020
 4761SOL    HW114369   3.656   6.577   2.009
 4761SOL    HW214370   3.616   6.455   2.090
 4762SOL     OW14371   3.631   5.678   0.591
 4762SOL    HW114372   3.687   5.752   0.568
 4762SOL    HW214373   3.656   5.609   0.529
 4763SOL     OW14374   3.679   5.667   0.242
 4763SOL    HW114375   3.585   5.660   0.259
 4763SOL    HW214376   3.709   5.737   0.300
 4764SOL     OW14377   4.336   5.671   1.332
 4764SOL    HW114378   4.397   5.728   1.285
 4764SOL    HW214379   4.390   5.598   1.362
 4765SOL     OW14380   3.635   5.989   1.117
 4765SOL    HW114381   3.595   6.067   1.155
 4765SOL    HW214382   3.606   5.917   1.173
 4766SOL     OW14383   4.698   6.494   1.988
 4766SOL    HW114384   4.775   6.474   1.935
 4766SOL    HW214385   4.647   6.412   1.988
 4767SOL     OW14386   2.648   5.672   0.233
 4767SOL    HW114387   2.568   5.694   0.185
 4767SOL    HW214388   2.702   5.751   0.226
 4768SOL     OW14389   2.586   6.286   1.157
 4768SOL    HW114390   2.627   6.302   1.071
 4768SOL    HW214391   2.621   6.201   1.184
 4769SOL     OW14392   4.844   5.365   1.206
 4769SOL    HW114393   4.773   5.359   1.143
 4769SOL    HW214394   4.851   5.277   1.243
 4770SOL     OW14395   3.622   6.342   1.793
 4770SOL    HW114396   3.701   6.296   1.820
 4770SOL    HW214397   3.620   6.420   1.848
 4771SOL     OW14398   3.895   5.951   1.015
 4771SOL    HW114399   3.894   6.033   0.966
 4771SOL    HW214400   3.804   5.940   1.044
 4772SOL     OW14401   2.775   5.661   1.401
 4772SOL    HW114402   2.718   5.709   1.342
 4772SOL    HW214403   2.815   5.593   1.346
 4773SOL     OW14404   3.867   5.214   0.626
 4773SOL    HW114405   3.888   5.271   0.551
 4773SOL    HW214406   3.923   5.138   0.615
 4774SOL     OW14407   2.886   5.518   0.162
 4774SOL    HW114408   2.876   5.452   0.231
 4774SOL    HW214409   2.809   5.574   0.173
 4775SOL     OW14410   2.927   5.063   0.081
 4775SOL    HW114411   2.967   5.051  -0.006
 4775SOL    HW214412   3.001   5.080   0.139
 4776SOL     OW14413   3.568   6.285   2.260
 4776SOL    HW114414   3.481   6.324   2.250
 4776SOL    HW214415   3.569   6.211   2.200
 4777SOL     OW14416   3.777   5.862   0.424
 4777SOL    HW114417   3.868   5.884   0.407
 4777SOL    HW214418   3.727   5.936   0.389
 4778SOL     OW14419   4.743   6.580   1.162
 4778SOL    HW114420   4.649   6.593   1.154
 4778SOL    HW214421   4.780   6.625   1.086
 4779SOL     OW14422   3.558   5.770   1.322
 4779SOL    HW114423   3.509   5.790   1.402
 4779SOL    HW214424   3.650   5.782   1.347
 4780SOL     OW14425   2.793   5.288   0.995
 4780SOL    HW114426   2.733   5.359   1.018
 4780SOL    HW214427   2.841   5.321   0.919
 4781SOL     OW14428   2.764   5.378   1.306
 4781SOL    HW114429   2.784   5.389   1.213
 4781SOL    HW214430   2.849   5.367   1.348
 4782SOL     OW14431   3.906   5.695   2.268
 4782SOL    HW114432   3.834   5.693   2.205
 4782SOL    HW214433   3.869   5.657   2.348
 4783SOL     OW14434   4.808   5.329   0.552
 4783SOL    HW114435   4.806   5.281   0.470
 4783SOL    HW214436   4.851   5.269   0.613
 4784SOL     OW14437   2.671   5.945   0.111
 4784SOL    HW114438   2.653   6.028   0.153
 4784SOL    HW214439   2.611   5.941   0.037
 4785SOL     OW14440   2.533   4.985   1.002
 4785SOL    HW114441   2.539   4.891   0.981
 4785SOL    HW214442   2.441   5.006   0.987
 4786SOL     OW14443   3.790   5.519   0.028
 4786SOL    HW114444   3.754   5.581   0.091
 4786SOL    HW214445   3.871   5.488   0.067
 4787SOL     OW14446   4.641   5.202   2.094
 4787SOL    HW114447   4.565   5.166   2.048
 4787SOL    HW214448   4.688   5.126   2.128
 4788SOL     OW14449   4.584   5.158   1.475
 4788SOL    HW114450   4.549   5.081   1.429
 4788SOL    HW214451   4.675   5.164   1.446
 4789SOL     OW14452   4.645   5.325   1.027
 4789SOL    HW114453   4.567   5.290   1.070
 4789SOL    HW214454   4.617   5.411   0.994
 4790SOL     OW14455   3.383   5.347   1.488
 4790SOL    HW114456   3.343   5.430   1.465
 4790SOL    HW214457   3.448   5.331   1.419
 4791SOL     OW14458   4.557   6.338   0.358
 4791SOL    HW114459   4.497   6.268   0.335
 4791SOL    HW214460   4.615   6.300   0.423
 4792SOL     OW14461   3.422   5.857   0.950
 4792SOL    HW114462   3.418   5.770   0.991
 4792SOL    HW214463   3.467   5.842   0.867
 4793SOL     OW14464   4.830   5.993   2.144
 4793SOL    HW114465   4.838   5.951   2.058
 4793SOL    HW214466   4.740   6.024   2.148
 4794SOL     OW14467   3.217   6.075   1.030
 4794SOL    HW114468   3.273   6.011   0.985
 4794SOL    HW214469   3.251   6.078   1.119
 4795SOL     OW14470   3.640   5.635   2.076
 4795SOL    HW114471   3.597   5.711   2.114
 4795SOL    HW214472   3.588   5.614   1.999
 4796SOL     OW14473   3.154   5.543   0.236
 4796SOL    HW114474   3.158   5.569   0.328
 4796SOL    HW214475   3.070   5.498   0.227
 4797SOL     OW14476   4.145   5.642   1.743
 4797SOL    HW114477   4.052   5.652   1.766
 4797SOL    HW214478   4.184   5.600   1.819
 4798SOL     OW14479   3.532   6.082   0.856
 4798SOL    HW114480   3.627   6.092   0.851
 4798SOL    HW214481   3.519   6.008   0.914
 4799SOL     OW14482   4.530   5.853   0.430
 4799SOL    HW114483   4.445   5.834   0.390
 4799SOL    HW214484   4.582   5.774   0.413
 4800SOL     OW14485   4.295   5.262   1.454
 4800SOL    HW114486   4.353   5.234   1.525
 4800SOL    HW214487   4.210   5.275   1.496
 4801SOL     OW14488   4.313   5.811   1.584
 4801SOL    HW114489   4.292   5.805   1.491
 4801SOL    HW214490   4.246   5.758   1.627
 4802SOL     OW14491   2.913   5.719   2.379
 4802SOL    HW114492   2.844   5.750   2.320
 4802SOL    HW214493   2.890   5.628   2.397
 4803SOL     OW14494   3.495   5.383   0.877
 4803SOL    HW114495   3.434   5.339   0.936
 4803SOL    HW214496   3.476   5.346   0.791
 4804SOL     OW14497   2.709   6.037   1.244
 4804SOL    HW114498   2.679   5.947   1.260
 4804SOL    HW214499   2.712   6.077   1.331
 4805SOL     OW14500   4.724   5.564   0.881
 4805SOL    HW114501   4.817   5.563   0.858
 4805SOL    HW214502   4.696   5.654   0.862
 4806SOL     OW14503   4.879   5.326   2.443
 4806SOL    HW114504   4.905   5.235   2.459
 4806SOL    HW214505   4.923   5.350   2.361
 4807SOL     OW14506   3.401   5.670   0.284
 4807SOL    HW114507   3.338   5.743   0.287
 4807SOL    HW214508   3.365   5.610   0.219
 4808SOL     OW14509   4.711   6.091   1.720
 4808SOL    HW114510   4.769   6.019   1.745
 4808SOL    HW214511   4.623   6.053   1.725
 4809SOL     OW14512   4.535   5.634   2.137
 4809SOL    HW114513   4.535   5.571   2.209
 4809SOL    HW214514   4.603   5.603   2.077
 4810SOL     OW14515   3.178   5.678   1.746
 4810SOL    HW114516   3.235   5.633   1.809
 4810SOL    HW214517   3.187   5.771   1.768
 4811SOL     OW14518   4.778   5.837   0.832
 4811SOL    HW114519   4.832   5.816   0.756
 4811SOL    HW214520   4.688   5.827   0.802
 4812SOL     OW14521   4.219   4.982   1.784
 4812SOL    HW114522   4.184   4.940   1.862
 4812SOL    HW214523   4.147   5.034   1.750
 4813SOL     OW14524   4.848   5.123   1.378
 4813SOL    HW114525   4.942   5.135   1.387
 4813SOL    HW214526   4.838   5.046   1.323
 4814SOL     OW14527   4.619   5.374   2.331
 4814SOL    HW114528   4.701   5.346   2.371
 4814SOL    HW214529   4.618   5.330   2.246
 4815SOL     OW14530   3.952   5.582   0.526
 4815SOL    HW114531   4.035   5.629   0.522
 4815SOL    HW214532   3.927   5.587   0.618
 4816SOL     OW14533   4.595   5.424   0.678
 4816SOL    HW114534   4.665   5.390   0.624
 4816SOL    HW214535   4.639   5.466   0.752
 4817SOL     OW14536   3.582   6.092   2.053
 4817SOL    HW114537   3.570   6.099   1.958
 4817SOL    HW214538   3.536   6.011   2.077
 4818SOL     OW14539   3.823   6.557   3.375
 4818SOL    HW114540   3.886   6.527   3.440
 4818SOL    HW214541   3.774   6.626   3.420
 4819SOL     OW14542   4.497   6.288   4.152
 4819SOL    HW114543   4.553   6.261   4.079
 4819SOL    HW214544   4.545   6.262   4.230
 4820SOL     OW14545   4.715   5.620   4.149
 4820SOL    HW114546   4.645   5.563   4.182
 4820SOL    HW214547   4.768   5.562   4.094
 4821SOL     OW14548   4.438   6.276   3.767
 4821SOL    HW114549   4.377   6.206   3.788
 4821SOL    HW214550   4.508   6.268   3.832
 4822SOL     OW14551   4.358   6.488   4.014
 4822SOL    HW114552   4.407   6.415   4.050
 4822SOL    HW214553   4.301   6.517   4.086
 4823SOL     OW14554   2.874   5.908   3.264
 4823SOL    HW114555   2.942   5.959   3.221
 4823SOL    HW214556   2.865   5.950   3.350
 4824SOL     OW14557   4.200   5.697   2.972
 4824SOL    HW114558   4.196   5.785   3.009
 4824SOL    HW214559   4.214   5.711   2.879
 4825SOL     OW14560   4.102   5.249   3.606
 4825SOL    HW114561   4.119   5.339   3.636
 4825SOL    HW214562   4.188   5.218   3.577
 4826SOL     OW14563   4.376   4.995   3.546
 4826SOL    HW114564   4.303   4.948   3.586
 4826SOL    HW214565   4.441   4.928   3.528
 4827SOL     OW14566   4.103   4.996   3.810
 4827SOL    HW114567   4.146   5.081   3.820
 4827SOL    HW214568   4.030   4.999   3.873
 4828SOL     OW14569   4.817   6.234   3.379
 4828SOL    HW114570   4.883   6.171   3.350
 4828SOL    HW214571   4.868   6.308   3.411
 4829SOL     OW14572   4.714   5.622   2.887
 4829SOL    HW114573   4.727   5.554   2.953
 4829SOL    HW214574   4.791   5.615   2.831
 4830SOL     OW14575   3.190   6.477   3.159
 4830SOL    HW114576   3.160   6.514   3.242
 4830SOL    HW214577   3.285   6.472   3.168
 4831SOL     OW14578   3.051   5.701   3.265
 4831SOL    HW114579   3.104   5.718   3.343
 4831SOL    HW214580   2.992   5.776   3.260
 4832SOL     OW14581   2.621   6.374   3.220
 4832SOL    HW114582   2.560   6.414   3.283
 4832SOL    HW214583   2.564   6.327   3.159
 4833SOL     OW14584   3.680   5.384   4.628
 4833SOL    HW114585   3.685   5.344   4.542
 4833SOL    HW214586   3.689   5.478   4.612
 4834SOL     OW14587   3.468   6.812   2.508
 4834SOL    HW114588   3.489   6.740   2.568
 4834SOL    HW214589   3.452   6.769   2.424
 4835SOL     OW14590   4.512   6.041   4.607
 4835SOL    HW114591   4.463   6.030   4.688
 4835SOL    HW214592   4.481   5.972   4.550
 4836SOL     OW14593   4.448   5.956   4.278
 4836SOL    HW114594   4.411   5.901   4.209
 4836SOL    HW214595   4.422   5.913   4.360
 4837SOL     OW14596   4.333   5.282   4.291
 4837SOL    HW114597   4.244   5.248   4.288
 4837SOL    HW214598   4.370   5.245   4.371
 4838SOL     OW14599   4.260   5.904   3.634
 4838SOL    HW114600   4.233   5.984   3.678
 4838SOL    HW214601   4.355   5.901   3.647
 4839SOL     OW14602   4.059   5.735   3.546
 4839SOL    HW114603   4.112   5.798   3.596
 4839SOL    HW214604   3.995   5.790   3.499
 4840SOL     OW14605   3.365   5.982   4.367
 4840SOL    HW114606   3.306   5.953   4.436
 4840SOL    HW214607   3.352   6.077   4.361
 4841SOL     OW14608   2.835   5.109   4.562
 4841SOL    HW114609   2.831   5.052   4.639
 4841SOL    HW214610   2.853   5.050   4.489
 4842SOL     OW14611   3.312   5.420   2.986
 4842SOL    HW114612   3.350   5.428   2.899
 4842SOL    HW214613   3.268   5.503   3.001
 4843SOL     OW14614   2.923   6.424   3.069
 4843SOL    HW114615   3.001   6.438   3.122
 4843SOL    HW214616   2.894   6.335   3.091
 4844SOL     OW14617   4.942   5.160   3.197
 4844SOL    HW114618   4.958   5.074   3.158
 4844SOL    HW214619   5.024   5.208   3.183
 4845SOL     OW14620   2.753   6.132   3.050
 4845SOL    HW114621   2.667   6.160   3.018
 4845SOL    HW214622   2.764   6.043   3.016
 4846SOL     OW14623   4.424   6.485   2.585
 4846SOL    HW114624   4.418   6.429   2.662
 4846SOL    HW214625   4.461   6.429   2.517
 4847SOL     OW14626   4.638   6.586   2.867
 4847SOL    HW114627   4.603   6.498   2.849
 4847SOL    HW214628   4.722   6.588   2.822
 4848SOL     OW14629   4.040   5.963   4.395
 4848SOL    HW114630   4.124   6.004   4.411
 4848SOL    HW214631   4.042   5.883   4.449
 4849SOL     OW14632   2.550   5.463   4.279
 4849SOL    HW114633   2.566   5.436   4.189
 4849SOL    HW214634   2.465   5.425   4.301
 4850SOL     OW14635   3.935   5.141   4.413
 4850SOL    HW114636   3.938   5.148   4.509
 4850SOL    HW214637   3.860   5.084   4.396
 4851SOL     OW14638   3.764   6.417   3.014
 4851SOL    HW114639   3.722   6.414   3.100
 4851SOL    HW214640   3.826   6.490   3.020
 4852SOL     OW14641   4.397   5.417   2.981
 4852SOL    HW114642   4.329   5.410   3.048
 4852SOL    HW214643   4.479   5.413   3.030
 4853SOL     OW14644   3.345   6.397   4.681
 4853SOL    HW114645   3.322   6.448   4.604
 4853SOL    HW214646   3.300   6.314   4.669
 4854SOL     OW14647   4.749   5.968   3.556
 4854SOL    HW114648   4.737   5.935   3.467
 4854SOL    HW214649   4.830   6.020   3.552
 4855SOL     OW14650   4.880   5.877   4.288
 4855SOL    HW114651   4.901   5.839   4.203
 4855SOL    HW214652   4.866   5.802   4.346
 4856SOL     OW14653   4.516   5.839   3.229
 4856SOL    HW114654   4.438   5.786   3.248
 4856SOL    HW214655   4.511   5.856   3.135
 4857SOL     OW14656   3.562   5.080   3.645
 4857SOL    HW114657   3.646   5.092   3.601
 4857SOL    HW214658   3.575   5.007   3.704
 4858SOL     OW14659   4.138   5.138   3.087
 4858SOL    HW114660   4.147   5.074   3.158
 4858SOL    HW214661   4.205   5.112   3.023
 4859SOL     OW14662   3.694   6.427   2.509
 4859SOL    HW114663   3.666   6.343   2.473
 4859SOL    HW214664   3.731   6.474   2.435
 4860SOL     OW14665   4.275   6.123   4.451
 4860SOL    HW114666   4.215   6.186   4.493
 4860SOL    HW214667   4.361   6.165   4.457
 4861SOL     OW14668   4.136   6.294   2.516
 4861SOL    HW114669   4.070   6.228   2.496
 4861SOL    HW214670   4.163   6.328   2.431
 4862SOL     OW14671   3.040   5.467   4.134
 4862SOL    HW114672   3.054   5.556   4.168
 4862SOL    HW214673   3.084   5.410   4.197
 4863SOL     OW14674   3.769   5.273   3.375
 4863SOL    HW114675   3.787   5.249   3.284
 4863SOL    HW214676   3.694   5.332   3.370
 4864SOL     OW14677   2.733   5.223   4.236
 4864SOL    HW114678   2.758   5.216   4.329
 4864SOL    HW214679   2.741   5.316   4.216
 4865SOL     OW14680   3.136   5.310   4.341
 4865SOL    HW114681   3.093   5.309   4.427
 4865SOL    HW214682   3.133   5.219   4.312
 4866SOL     OW14683   4.217   5.491   4.475
 4866SOL    HW114684   4.213   5.463   4.566
 4866SOL    HW214685   4.274   5.427   4.432
 4867SOL     OW14686   2.859   6.099   4.406
 4867SOL    HW114687   2.801   6.064   4.338
 4867SOL    HW214688   2.928   6.033   4.414
 4868SOL     OW14689   2.975   5.251   3.974
 4868SOL    HW114690   2.996   5.193   4.046
 4868SOL    HW214691   2.997   5.339   4.006
 4869SOL     OW14692   3.230   5.577   3.921
 4869SOL    HW114693   3.211   5.656   3.871
 4869SOL    HW214694   3.156   5.569   3.983
 4870SOL     OW14695   4.853   5.704   4.483
 4870SOL    HW114696   4.940   5.667   4.497
 4870SOL    HW214697   4.802   5.633   4.444
 4871SOL     OW14698   3.116   5.231   3.007
 4871SOL    HW114699   3.193   5.286   3.016
 4871SOL    HW214700   3.098   5.200   3.095
 4872SOL     OW14701   2.555   5.393   4.677
 4872SOL    HW114702   2.548   5.308   4.635
 4872SOL    HW214703   2.581   5.453   4.606
 4873SOL     OW14704   4.831   5.476   2.652
 4873SOL    HW114705   4.864   5.431   2.575
 4873SOL    HW214706   4.864   5.425   2.726
 4874SOL     OW14707   3.885   6.232   4.388
 4874SOL    HW114708   3.922   6.281   4.461
 4874SOL    HW214709   3.902   6.140   4.410
 4875SOL     OW14710   4.827   5.671   3.852
 4875SOL    HW114711   4.862   5.584   3.835
 4875SOL    HW214712   4.744   5.674   3.805
 4876SOL     OW14713   3.819   5.050   2.674
 4876SOL    HW114714   3.851   5.056   2.763
 4876SOL    HW214715   3.876   4.985   2.632
 4877SOL     OW14716   3.096   5.992   4.247
 4877SOL    HW114717   3.158   6.039   4.191
 4877SOL    HW214718   3.011   6.005   4.204
 4878SOL     OW14719   4.108   6.223   2.850
 4878SOL    HW114720   4.025   6.266   2.830
 4878SOL    HW214721   4.171   6.263   2.790
 4879SOL     OW14722   2.913   5.529   4.430
 4879SOL    HW114723   2.915   5.510   4.336
 4879SOL    HW214724   2.943   5.448   4.472
 4880SOL     OW14725   4.588   5.815   4.024
 4880SOL    HW114726   4.496   5.813   4.049
 4880SOL    HW214727   4.630   5.750   4.081
 4881SOL     OW14728   3.598   6.083   3.947
 4881SOL    HW114729   3.677   6.135   3.962
 4881SOL    HW214730   3.620   5.996   3.980
 4882SOL     OW14731   4.820   6.274   3.725
 4882SOL    HW114732   4.911   6.292   3.704
 4882SOL    HW214733   4.773   6.354   3.703
 4883SOL     OW14734   4.572   6.707   4.337
 4883SOL    HW114735   4.599   6.645   4.404
 4883SOL    HW214736   4.476   6.700   4.334
 4884SOL     OW14737   3.389   6.479   2.519
 4884SOL    HW114738   3.429   6.400   2.556
 4884SOL    HW214739   3.446   6.501   2.445
 4885SOL     OW14740   4.414   5.245   3.643
 4885SOL    HW114741   4.397   5.264   3.736
 4885SOL    HW214742   4.418   5.149   3.639
 4886SOL     OW14743   3.101   5.334   3.624
 4886SOL    HW114744   3.063   5.246   3.622
 4886SOL    HW214745   3.028   5.391   3.647
 4887SOL     OW14746   2.998   5.447   3.215
 4887SOL    HW114747   3.074   5.389   3.213
 4887SOL    HW214748   3.026   5.521   3.268
 4888SOL     OW14749   3.921   6.140   4.866
 4888SOL    HW114750   3.866   6.083   4.920
 4888SOL    HW214751   3.999   6.087   4.847
 4889SOL     OW14752   3.525   6.141   2.508
 4889SOL    HW114753   3.536   6.131   2.413
 4889SOL    HW214754   3.433   6.120   2.524
 4890SOL     OW14755   4.548   5.841   3.692
 4890SOL    HW114756   4.617   5.894   3.652
 4890SOL    HW214757   4.573   5.836   3.785
 4891SOL     OW14758   4.243   5.222   2.639
 4891SOL    HW114759   4.307   5.244   2.707
 4891SOL    HW214760   4.266   5.134   2.611
 4892SOL     OW14761   3.661   5.587   3.343
 4892SOL    HW114762   3.639   5.620   3.256
 4892SOL    HW214763   3.606   5.509   3.354
 4893SOL     OW14764   3.806   5.881   3.888
 4893SOL    HW114765   3.853   5.810   3.932
 4893SOL    HW214766   3.855   5.960   3.912
 4894SOL     OW14767   4.564   5.442   2.590
 4894SOL    HW114768   4.576   5.426   2.496
 4894SOL    HW214769   4.647   5.480   2.618
 4895SOL     OW14770   3.076   5.942   4.877
 4895SOL    HW114771   2.987   5.976   4.864
 4895SOL    HW214772   3.065   5.848   4.889
 4896SOL     OW14773   2.575   6.375   3.944
 4896SOL    HW114774   2.509   6.354   4.010
 4896SOL    HW214775   2.550   6.462   3.912
 4897SOL     OW14776   2.796   5.693   4.173
 4897SOL    HW114777   2.703   5.676   4.160
 4897SOL    HW214778   2.836   5.674   4.088
 4898SOL     OW14779   4.497   5.456   3.881
 4898SOL    HW114780   4.506   5.450   3.786
 4898SOL    HW214781   4.447   5.378   3.905
 4899SOL     OW14782   2.503   5.564   2.918
 4899SOL    HW114783   2.550   5.492   2.960
 4899SOL    HW214784   2.565   5.599   2.854
 4900SOL     OW14785   2.540   5.859   3.474
 4900SOL    HW114786   2.462   5.810   3.447
 4900SOL    HW214787   2.534   5.941   3.425
 4901SOL     OW14788   4.542   5.974   2.585
 4901SOL    HW114789   4.626   5.977   2.630
 4901SOL    HW214790   4.493   5.904   2.628
 4902SOL     OW14791   2.992   5.994   2.845
 4902SOL    HW114792   2.949   6.077   2.823
 4902SOL    HW214793   2.937   5.927   2.804
 4903SOL     OW14794   3.537   5.853   4.180
 4903SOL    HW114795   3.617   5.906   4.186
 4903SOL    HW214796   3.475   5.897   4.237
 4904SOL     OW14797   2.828   5.960   4.150
 4904SOL    HW114798   2.755   6.007   4.111
 4904SOL    HW214799   2.834   5.879   4.100
 4905SOL     OW14800   2.639   5.072   3.887
 4905SOL    HW114801   2.652   5.067   3.792
 4905SOL    HW214802   2.715   5.120   3.919
 4906SOL     OW14803   2.756   5.842   4.658
 4906SOL    HW114804   2.781   5.934   4.673
 4906SOL    HW214805   2.780   5.825   4.567
 4907SOL     OW14806   4.164   6.364   3.097
 4907SOL    HW114807   4.181   6.321   3.013
 4907SOL    HW214808   4.178   6.457   3.080
 4908SOL     OW14809   3.463   6.288   4.081
 4908SOL    HW114810   3.520   6.324   4.148
 4908SOL    HW214811   3.504   6.206   4.055
 4909SOL     OW14812   3.334   5.213   3.502
 4909SOL    HW114813   3.391   5.174   3.568
 4909SOL    HW214814   3.254   5.236   3.550
 4910SOL     OW14815   4.814   5.963   3.963
 4910SOL    HW114816   4.735   5.931   4.007
 4910SOL    HW214817   4.825   5.905   3.888
 4911SOL     OW14818   4.572   6.245   4.433
 4911SOL    HW114819   4.620   6.180   4.382
 4911SOL    HW214820   4.552   6.201   4.516
 4912SOL     OW14821   2.509   5.824   4.823
 4912SOL    HW114822   2.580   5.769   4.790
 4912SOL    HW214823   2.451   5.835   4.748
 4913SOL     OW14824   3.182   5.655   3.508
 4913SOL    HW114825   3.239   5.579   3.495
 4913SOL    HW214826   3.208   5.691   3.593
 4914SOL     OW14827   2.562   6.191   2.559
 4914SOL    HW114828   2.539   6.178   2.467
 4914SOL    HW214829   2.650   6.228   2.557
 4915SOL     OW14830   4.679   5.493   4.448
 4915SOL    HW114831   4.639   5.487   4.361
 4915SOL    HW214832   4.664   5.407   4.487
 4916SOL     OW14833   2.504   5.156   4.544
 4916SOL    HW114834   2.518   5.068   4.580
 4916SOL    HW214835   2.492   5.142   4.450
 4917SOL     OW14836   4.712   6.391   3.138
 4917SOL    HW114837   4.739   6.358   3.224
 4917SOL    HW214838   4.622   6.422   3.151
 4918SOL     OW14839   3.153   5.673   3.008
 4918SOL    HW114840   3.203   5.754   3.012
 4918SOL    HW214841   3.132   5.653   3.099
 4919SOL     OW14842   2.614   4.977   2.768
 4919SOL    HW114843   2.611   4.984   2.672
 4919SOL    HW214844   2.702   4.942   2.786
 4920SOL     OW14845   2.754   5.703   3.463
 4920SOL    HW114846   2.681   5.765   3.469
 4920SOL    HW214847   2.808   5.736   3.391
 4921SOL     OW14848   3.603   5.309   2.876
 4921SOL    HW114849   3.679   5.313   2.819
 4921SOL    HW214850   3.528   5.306   2.816
 4922SOL     OW14851   4.963   5.732   3.135
 4922SOL    HW114852   4.990   5.816   3.097
 4922SOL    HW214853   4.985   5.667   3.068
 4923SOL     OW14854   2.589   6.092   3.973
 4923SOL    HW114855   2.595   6.184   3.947
 4923SOL    HW214856   2.496   6.073   3.973
 4924SOL     OW14857   2.607   5.445   3.549
 4924SOL    HW114858   2.578   5.487   3.469
 4924SOL    HW214859   2.528   5.432   3.600
 4925SOL     OW14860   3.154   5.950   4.555
 4925SOL    HW114861   3.180   5.873   4.604
 4925SOL    HW214862   3.086   5.919   4.495
 4926SOL     OW14863   3.968   6.076   3.748
 4926SOL    HW114864   3.945   5.996   3.702
 4926SOL    HW214865   3.886   6.126   3.751
 4927SOL     OW14866   2.935   6.264   2.827
 4927SOL    HW114867   3.026   6.269   2.855
 4927SOL    HW214868   2.895   6.344   2.863
 4928SOL     OW14869   4.402   5.976   4.847
 4928SOL    HW114870   4.469   5.970   4.915
 4928SOL    HW214871   4.379   5.885   4.827
 4929SOL     OW14872   3.899   5.555   4.335
 4929SOL    HW114873   3.850   5.480   4.302
 4929SOL    HW214874   3.851   5.584   4.412
 4930SOL     OW14875   4.291   5.707   3.263
 4930SOL    HW114876   4.234   5.722   3.339
 4930SOL    HW214877   4.257   5.627   3.224
 4931SOL     OW14878   2.856   6.109   4.835
 4931SOL    HW114879   2.783   6.144   4.784
 4931SOL    HW214880   2.850   6.154   4.919
 4932SOL     OW14881   2.529   5.085   4.136
 4932SOL    HW114882   2.601   5.143   4.158
 4932SOL    HW214883   2.545   5.060   4.045
 4933SOL     OW14884   3.417   5.604   3.640
 4933SOL    HW114885   3.418   5.662   3.716
 4933SOL    HW214886   3.503   5.561   3.642
 4934SOL     OW14887   3.046   5.386   4.932
 4934SOL    HW114888   2.984   5.444   4.976
 4934SOL    HW214889   3.002   5.362   4.851
 4935SOL     OW14890   3.793   6.213   3.381
 4935SOL    HW114891   3.885   6.228   3.358
 4935SOL    HW214892   3.744   6.250   3.307
 4936SOL     OW14893   3.775   6.739   2.931
 4936SOL    HW114894   3.793   6.826   2.897
 4936SOL    HW214895   3.693   6.713   2.889
 4937SOL     OW14896   4.012   5.950   4.122
 4937SOL    HW114897   4.033   5.947   4.215
 4937SOL    HW214898   4.021   5.859   4.092
 4938SOL     OW14899   2.728   6.330   4.248
 4938SOL    HW114900   2.694   6.243   4.268
 4938SOL    HW214901   2.671   6.362   4.178
 4939SOL     OW14902   3.534   6.526   3.961
 4939SOL    HW114903   3.496   6.438   3.952
 4939SOL    HW214904   3.473   6.583   3.914
 4940SOL     OW14905   4.051   6.243   3.330
 4940SOL    HW114906   4.124   6.236   3.392
 4940SOL    HW214907   4.088   6.291   3.255
 4941SOL     OW14908   4.379   5.827   4.494
 4941SOL    HW114909   4.296   5.788   4.522
 4941SOL    HW214910   4.446   5.769   4.530
 4942SOL     OW14911   3.090   6.040   3.117
 4942SOL    HW114912   3.063   6.025   3.027
 4942SOL    HW214913   3.185   6.029   3.116
 4943SOL     OW14914   2.904   5.677   2.921
 4943SOL    HW114915   2.986   5.674   2.972
 4943SOL    HW214916   2.932   5.698   2.832
 4944SOL     OW14917   4.750   5.093   3.417
 4944SOL    HW114918   4.715   5.179   3.440
 4944SOL    HW214919   4.821   5.111   3.355
 4945SOL     OW14920   3.169   5.074   2.782
 4945SOL    HW114921   3.212   5.109   2.705
 4945SOL    HW214922   3.158   5.149   2.840
 4946SOL     OW14923   3.167   6.521   4.440
 4946SOL    HW114924   3.120   6.438   4.431
 4946SOL    HW214925   3.123   6.566   4.512
 4947SOL     OW14926   4.890   5.749   2.588
 4947SOL    HW114927   4.876   5.657   2.569
 4947SOL    HW214928   4.924   5.786   2.506
 4948SOL     OW14929   4.333   5.064   2.923
 4948SOL    HW114930   4.388   4.985   2.925
 4948SOL    HW214931   4.389   5.131   2.885
 4949SOL     OW14932   2.503   5.527   3.310
 4949SOL    HW114933   2.533   5.599   3.255
 4949SOL    HW214934   2.518   5.448   3.257
 4950SOL     OW14935   4.737   5.113   2.655
 4950SOL    HW114936   4.806   5.138   2.716
 4950SOL    HW214937   4.670   5.073   2.710
 4951SOL     OW14938   3.894   5.663   4.042
 4951SOL    HW114939   3.868   5.595   4.103
 4951SOL    HW214940   3.892   5.621   3.956
 4952SOL     OW14941   4.373   5.173   3.299
 4952SOL    HW114942   4.329   5.258   3.309
 4952SOL    HW214943   4.394   5.146   3.388
 4953SOL     OW14944   4.566   6.098   3.331
 4953SOL    HW114945   4.547   6.006   3.315
 4953SOL    HW214946   4.660   6.106   3.320
 4954SOL     OW14947   2.616   5.463   4.038
 4954SOL    HW114948   2.677   5.518   3.990
 4954SOL    HW214949   2.584   5.399   3.974
 4955SOL     OW14950   3.890   5.542   3.790
 4955SOL    HW114951   3.972   5.541   3.740
 4955SOL    HW214952   3.821   5.531   3.724
 4956SOL     OW14953   3.594   6.622   2.684
 4956SOL    HW114954   3.622   6.546   2.634
 4956SOL    HW214955   3.534   6.587   2.750
 4957SOL     OW14956   2.692   6.215   4.603
 4957SOL    HW114957   2.746   6.282   4.645
 4957SOL    HW214958   2.732   6.204   4.516
 4958SOL     OW14959   3.218   5.121   3.819
 4958SOL    HW114960   3.204   5.209   3.854
 4958SOL    HW214961   3.147   5.108   3.756
 4959SOL     OW14962   3.900   5.365   2.850
 4959SOL    HW114963   3.924   5.445   2.895
 4959SOL    HW214964   3.965   5.356   2.780
 4960SOL     OW14965   3.861   6.148   4.043
 4960SOL    HW114966   3.932   6.087   4.063
 4960SOL    HW214967   3.904   6.222   4.001
 4961SOL     OW14968   4.142   5.534   3.686
 4961SOL    HW114969   4.222   5.559   3.732
 4961SOL    HW214970   4.114   5.612   3.640
 4962SOL     OW14971   4.100   5.836   2.630
 4962SOL    HW114972   4.073   5.877   2.548
 4962SOL    HW214973   4.074   5.898   2.698
 4963SOL     OW14974   4.748   6.617   4.152
 4963SOL    HW114975   4.688   6.649   4.084
 4963SOL    HW214976   4.709   6.647   4.234
 4964SOL     OW14977   2.505   6.806   3.612
 4964SOL    HW114978   2.470   6.836   3.528
 4964SOL    HW214979   2.574   6.745   3.589
 4965SOL     OW14980   3.217   5.204   2.535
 4965SOL    HW114981   3.139   5.258   2.520
 4965SOL    HW214982   3.248   5.182   2.447
 4966SOL     OW14983   3.580   5.316   3.776
 4966SOL    HW114984   3.563   5.232   3.733
 4966SOL    HW214985   3.624   5.369   3.710
 4967SOL     OW14986   4.676   6.242   3.951
 4967SOL    HW114987   4.725   6.241   3.868
 4967SOL    HW214988   4.723   6.181   4.007
 4968SOL     OW14989   2.900   5.799   4.434
 4968SOL    HW114990   2.914   5.705   4.437
 4968SOL    HW214991   2.867   5.815   4.345
 4969SOL     OW14992   2.747   6.278   3.426
 4969SOL    HW114993   2.838   6.249   3.421
 4969SOL    HW214994   2.729   6.316   3.339
 4970SOL     OW14995   3.519   5.283   3.132
 4970SOL    HW114996   3.582   5.299   3.062
 4970SOL    HW214997   3.435   5.311   3.097
 4971SOL     OW14998   2.776   5.369   4.847
 4971SOL    HW114999   2.699   5.396   4.799
 4971SOL    HW215000   2.787   5.276   4.826
 4972SOL     OW15001   3.931   5.582   3.303
 4972SOL    HW115002   3.836   5.590   3.316
 4972SOL    HW215003   3.969   5.614   3.385
 4973SOL     OW15004   3.155   5.199   3.270
 4973SOL    HW115005   3.127   5.107   3.274
 4973SOL    HW215006   3.218   5.208   3.342
 4974SOL     OW15007   4.562   5.023   3.136
 4974SOL    HW115008   4.486   5.079   3.154
 4974SOL    HW215009   4.619   5.036   3.212
 4975SOL     OW15010   3.133   6.319   2.535
 4975SOL    HW115011   3.108   6.388   2.597
 4975SOL    HW215012   3.120   6.359   2.449
 4976SOL     OW15013   4.801   5.357   4.081
 4976SOL    HW115014   4.862   5.284   4.081
 4976SOL    HW215015   4.717   5.317   4.059
 4977SOL     OW15016   2.585   6.103   4.296
 4977SOL    HW115017   2.512   6.065   4.344
 4977SOL    HW215018   2.599   6.042   4.223
 4978SOL     OW15019   4.076   5.560   2.613
 4978SOL    HW115020   4.080   5.656   2.612
 4978SOL    HW215021   4.157   5.533   2.656
 4979SOL     OW15022   4.024   5.190   4.175
 4979SOL    HW115023   4.030   5.278   4.140
 4979SOL    HW215024   3.967   5.198   4.252
 4980SOL     OW15025   4.641   5.597   3.631
 4980SOL    HW115026   4.599   5.681   3.618
 4980SOL    HW215027   4.700   5.587   3.556
 4981SOL     OW15028   3.339   6.091   3.044
 4981SOL    HW115029   3.382   6.013   3.010
 4981SOL    HW215030   3.405   6.132   3.101
 4982SOL     OW15031   3.179   6.235   4.061
 4982SOL    HW115032   3.136   6.321   4.068
 4982SOL    HW215033   3.272   6.256   4.051
 4983SOL     OW15034   3.633   6.424   3.245
 4983SOL    HW115035   3.552   6.435   3.296
 4983SOL    HW215036   3.702   6.455   3.304
 4984SOL     OW15037   3.729   5.472   3.588
 4984SOL    HW115038   3.732   5.386   3.545
 4984SOL    HW215039   3.728   5.535   3.515
 4985SOL     OW15040   4.334   5.801   2.728
 4985SOL    HW115041   4.351   5.707   2.727
 4985SOL    HW215042   4.258   5.812   2.670
 4986SOL     OW15043   3.038   5.013   4.821
 4986SOL    HW115044   3.028   4.933   4.769
 4986SOL    HW215045   3.116   5.055   4.785
 4987SOL     OW15046   3.006   6.322   4.355
 4987SOL    HW115047   2.929   6.364   4.317
 4987SOL    HW215048   2.975   6.234   4.379
 4988SOL     OW15049   2.521   5.742   4.051
 4988SOL    HW115050   2.438   5.704   4.022
 4988SOL    HW215051   2.551   5.794   3.976
 4989SOL     OW15052   4.198   6.254   3.563
 4989SOL    HW115053   4.215   6.182   3.624
 4989SOL    HW215054   4.285   6.280   3.533
 4990SOL     OW15055   4.875   6.390   2.707
 4990SOL    HW115056   4.926   6.310   2.700
 4990SOL    HW215057   4.830   6.398   2.623
 4991SOL     OW15058   3.641   5.036   3.162
 4991SOL    HW115059   3.597   5.121   3.160
 4991SOL    HW215060   3.729   5.054   3.127
 4992SOL     OW15061   4.365   6.169   2.739
 4992SOL    HW115062   4.401   6.127   2.660
 4992SOL    HW215063   4.295   6.110   2.767
 4993SOL     OW15064   4.079   5.729   4.535
 4993SOL    HW115065   4.113   5.640   4.521
 4993SOL    HW215066   4.041   5.726   4.623
 4994SOL     OW15067   3.380   6.638   4.360
 4994SOL    HW115068   3.292   6.602   4.375
 4994SOL    HW215069   3.436   6.589   4.420
 4995SOL     OW15070   3.218   5.722   4.683
 4995SOL    HW115071   3.233   5.697   4.775
 4995SOL    HW215072   3.146   5.665   4.655
 4996SOL     OW15073   3.471   6.236   3.575
 4996SOL    HW115074   3.523   6.223   3.496
 4996SOL    HW215075   3.395   6.285   3.545
 4997SOL     OW15076   4.075   5.418   4.039
 4997SOL    HW115077   4.043   5.454   3.956
 4997SOL    HW215078   4.092   5.495   4.093
 4998SOL     OW15079   2.583   5.783   3.757
 4998SOL    HW115080   2.589   5.816   3.668
 4998SOL    HW215081   2.492   5.755   3.766
 4999SOL     OW15082   4.315   5.519   2.736
 4999SOL    HW115083   4.394   5.496   2.687
 4999SOL    HW215084   4.337   5.500   2.827
 5000SOL     OW15085   4.173   5.939   3.111
 5000SOL    HW115086   4.231   6.014   3.125
 5000SOL    HW215087   4.207   5.871   3.168
 5001SOL     OW15088   3.773   6.266   3.768
 5001SOL    HW115089   3.770   6.341   3.828
 5001SOL    HW215090   3.686   6.265   3.727
 5002SOL     OW15091   2.936   6.007   3.506
 5002SOL    HW115092   3.002   5.972   3.566
 5002SOL    HW215093   2.882   6.065   3.561
 5003SOL     OW15094   2.848   6.388   4.717
 5003SOL    HW115095   2.940   6.383   4.694
 5003SOL    HW215096   2.814   6.461   4.664
 5004SOL     OW15097   4.342   6.140   3.133
 5004SOL    HW115098   4.403   6.143   3.207
 5004SOL    HW215099   4.297   6.224   3.136
 5005SOL     OW15100   3.129   6.019   3.913
 5005SOL    HW115101   3.205   6.074   3.897
 5005SOL    HW215102   3.080   6.065   3.981
 5006SOL     OW15103   4.219   6.096   3.813
 5006SOL    HW115104   4.126   6.088   3.790
 5006SOL    HW215105   4.219   6.110   3.908
 5007SOL     OW15106   3.710   5.093   4.251
 5007SOL    HW115107   3.624   5.102   4.209
 5007SOL    HW215108   3.707   5.007   4.292
 5008SOL     OW15109   4.761   6.018   2.967
 5008SOL    HW115110   4.673   5.981   2.970
 5008SOL    HW215111   4.785   6.017   2.874
 5009SOL     OW15112   4.935   5.208   2.820
 5009SOL    HW115113   4.996   5.254   2.878
 5009SOL    HW215114   4.974   5.121   2.808
 5010SOL     OW15115   3.834   6.309   2.762
 5010SOL    HW115116   3.778   6.362   2.705
 5010SOL    HW215117   3.806   6.332   2.850
 5011SOL     OW15118   2.854   6.283   3.896
 5011SOL    HW115119   2.905   6.323   3.967
 5011SOL    HW215120   2.769   6.327   3.901
 5012SOL     OW15121   3.409   6.523   2.850
 5012SOL    HW115122   3.337   6.468   2.880
 5012SOL    HW215123   3.445   6.561   2.931
 5013SOL     OW15124   4.152   5.378   3.237
 5013SOL    HW115125   4.119   5.298   3.195
 5013SOL    HW215126   4.076   5.436   3.240
 5014SOL     OW15127   3.232   5.895   2.785
 5014SOL    HW115128   3.144   5.926   2.803
 5014SOL    HW215129   3.264   5.952   2.715
 5015SOL     OW15130   2.734   5.012   3.295
 5015SOL    HW115131   2.672   5.026   3.367
 5015SOL    HW215132   2.682   4.969   3.227
 5016SOL     OW15133   3.721   5.374   4.275
 5016SOL    HW115134   3.687   5.392   4.187
 5016SOL    HW215135   3.746   5.282   4.273
 5017SOL     OW15136   2.987   6.209   3.321
 5017SOL    HW115137   2.999   6.151   3.247
 5017SOL    HW215138   3.049   6.177   3.387
 5018SOL     OW15139   3.075   5.049   4.289
 5018SOL    HW115140   3.113   5.017   4.207
 5018SOL    HW215141   2.981   5.046   4.274
 5019SOL     OW15142   2.616   5.589   4.510
 5019SOL    HW115143   2.609   5.561   4.418
 5019SOL    HW215144   2.704   5.627   4.517
 5020SOL     OW15145   4.294   6.125   4.095
 5020SOL    HW115146   4.385   6.154   4.110
 5020SOL    HW215147   4.291   6.038   4.134
 5021SOL     OW15148   4.034   5.954   2.868
 5021SOL    HW115149   4.054   6.047   2.858
 5021SOL    HW215150   4.087   5.926   2.942
 5022SOL     OW15151   2.762   5.069   3.624
 5022SOL    HW115152   2.783   5.141   3.564
 5022SOL    HW215153   2.685   5.027   3.584
 5023SOL     OW15154   2.741   5.521   3.091
 5023SOL    HW115155   2.805   5.503   3.160
 5023SOL    HW215156   2.778   5.596   3.043
 5024SOL     OW15157   2.889   5.821   2.683
 5024SOL    HW115158   2.941   5.778   2.615
 5024SOL    HW215159   2.816   5.860   2.635
 5025SOL     OW15160   3.760   5.983   4.227
 5025SOL    HW115161   3.846   5.954   4.258
 5025SOL    HW215162   3.780   6.045   4.157
 5026SOL     OW15163   4.493   5.235   2.794
 5026SOL    HW115164   4.530   5.253   2.708
 5026SOL    HW215165   4.473   5.321   2.831
 5027SOL     OW15166   2.899   6.436   3.660
 5027SOL    HW115167   2.846   6.366   3.699
 5027SOL    HW215168   2.980   6.436   3.711
 5028SOL     OW15169   3.227   6.341   3.518
 5028SOL    HW115170   3.163   6.332   3.589
 5028SOL    HW215171   3.212   6.264   3.463
 5029SOL     OW15172   4.931   6.235   3.041
 5029SOL    HW115173   4.888   6.152   3.019
 5029SOL    HW215174   4.860   6.294   3.066
 5030SOL     OW15175   2.811   6.282   2.574
 5030SOL    HW115176   2.872   6.257   2.644
 5030SOL    HW215177   2.822   6.377   2.566
 5031SOL     OW15178   4.536   5.435   4.209
 5031SOL    HW115179   4.475   5.364   4.228
 5031SOL    HW215180   4.511   5.466   4.121
 5032SOL     OW15181   2.895   5.301   2.839
 5032SOL    HW115182   2.901   5.211   2.809
 5032SOL    HW215183   2.971   5.311   2.897
 5033SOL     OW15184   3.848   5.160   3.602
 5033SOL    HW115185   3.938   5.180   3.627
 5033SOL    HW215186   3.841   5.193   3.512
 5034SOL     OW15187   3.043   5.052   3.579
 5034SOL    HW115188   2.973   5.017   3.635
 5034SOL    HW215189   3.026   5.013   3.493
 5035SOL     OW15190   4.960   6.367   4.426
 5035SOL    HW115191   5.035   6.329   4.472
 5035SOL    HW215192   4.959   6.323   4.341
 5036SOL     OW15193   3.348   6.260   4.343
 5036SOL    HW115194   3.289   6.329   4.313
 5036SOL    HW215195   3.436   6.295   4.325
 5037SOL     OW15196   3.010   5.310   4.575
 5037SOL    HW115197   2.956   5.231   4.573
 5037SOL    HW215198   3.078   5.291   4.640
 5038SOL     OW15199   3.383   5.839   2.999
 5038SOL    HW115200   3.350   5.853   2.910
 5038SOL    HW215201   3.449   5.771   2.989
 5039SOL     OW15202   3.137   5.798   3.789
 5039SOL    HW115203   3.048   5.778   3.759
 5039SOL    HW215204   3.127   5.878   3.840
 5040SOL     OW15205   2.874   6.671   2.951
 5040SOL    HW115206   2.964   6.703   2.946
 5040SOL    HW215207   2.874   6.610   3.025
 5041SOL     OW15208   3.364   6.134   3.795
 5041SOL    HW115209   3.441   6.122   3.849
 5041SOL    HW215210   3.395   6.183   3.719
 5042SOL     OW15211   3.398   5.180   4.200
 5042SOL    HW115212   3.345   5.227   4.264
 5042SOL    HW215213   3.385   5.229   4.119
 5043SOL     OW15214   4.867   6.360   4.164
 5043SOL    HW115215   4.808   6.435   4.151
 5043SOL    HW215216   4.809   6.284   4.165
 5044SOL     OW15217   3.425   6.502   3.423
 5044SOL    HW115218   3.340   6.485   3.463
 5044SOL    HW215219   3.480   6.533   3.495
 5045SOL     OW15220   4.465   6.326   3.466
 5045SOL    HW115221   4.485   6.328   3.560
 5045SOL    HW215222   4.500   6.243   3.436
 5046SOL     OW15223   2.662   5.260   3.062
 5046SOL    HW115224   2.718   5.337   3.070
 5046SOL    HW215225   2.723   5.187   3.055
 5047SOL     OW15226   4.081   6.301   4.159
 5047SOL    HW115227   4.028   6.256   4.224
 5047SOL    HW215228   4.158   6.246   4.148
 5048SOL     OW15229   3.138   6.194   4.701
 5048SOL    HW115230   3.100   6.140   4.771
 5048SOL    HW215231   3.133   6.139   4.623
 5049SOL     OW15232   2.724   5.836   3.014
 5049SOL    HW115233   2.752   5.853   3.104
 5049SOL    HW215234   2.791   5.778   2.979
 5050SOL     OW15235   3.962   6.405   3.581
 5050SOL    HW115236   3.902   6.343   3.623
 5050SOL    HW215237   4.035   6.350   3.550
 5051SOL     OW15238   2.528   6.140   4.788
 5051SOL    HW115239   2.592   6.143   4.717
 5051SOL    HW215240   2.462   6.078   4.758
 5052SOL     OW15241   2.740   6.505   4.487
 5052SOL    HW115242   2.744   6.463   4.401
 5052SOL    HW215243   2.689   6.584   4.473
 5053SOL     OW15244   3.821   6.442   3.956
 5053SOL    HW115245   3.754   6.510   3.968
 5053SOL    HW215246   3.856   6.429   4.044
 5054SOL     OW15247   3.996   6.344   4.624
 5054SOL    HW115248   4.044   6.421   4.653
 5054SOL    HW215249   3.982   6.293   4.704
 5055SOL     OW15250   3.749   5.370   3.993
 5055SOL    HW115251   3.673   5.313   3.975
 5055SOL    HW215252   3.747   5.434   3.922
 5056SOL     OW15253   2.558   6.086   3.319
 5056SOL    HW115254   2.628   6.113   3.377
 5056SOL    HW215255   2.585   6.117   3.232
 5057SOL     OW15256   3.110   6.253   3.753
 5057SOL    HW115257   3.183   6.216   3.803
 5057SOL    HW215258   3.035   6.197   3.774
 5058SOL     OW15259   3.531   5.600   4.321
 5058SOL    HW115260   3.538   5.657   4.245
 5058SOL    HW215261   3.565   5.516   4.290
 5059SOL     OW15262   2.927   5.537   3.621
 5059SOL    HW115263   2.994   5.562   3.557
 5059SOL    HW215264   2.845   5.567   3.582
 5060SOL     OW15265   3.202   6.312   2.915
 5060SOL    HW115266   3.246   6.237   2.954
 5060SOL    HW215267   3.171   6.363   2.990
 5061SOL     OW15268   3.586   6.514   4.507
 5061SOL    HW115269   3.656   6.577   4.496
 5061SOL    HW215270   3.616   6.455   4.577
 5062SOL     OW15271   3.803   5.921   2.515
 5062SOL    HW115272   3.740   5.861   2.475
 5062SOL    HW215273   3.755   5.962   2.587
 5063SOL     OW15274   3.631   5.678   3.078
 5063SOL    HW115275   3.687   5.752   3.055
 5063SOL    HW215276   3.656   5.609   3.016
 5064SOL     OW15277   3.679   5.667   2.729
 5064SOL    HW115278   3.585   5.660   2.746
 5064SOL    HW215279   3.709   5.737   2.787
 5065SOL     OW15280   4.336   5.671   3.819
 5065SOL    HW115281   4.397   5.728   3.772
 5065SOL    HW215282   4.390   5.598   3.849
 5066SOL     OW15283   3.635   5.989   3.604
 5066SOL    HW115284   3.595   6.067   3.642
 5066SOL    HW215285   3.606   5.917   3.660
 5067SOL     OW15286   4.698   6.494   4.475
 5067SOL    HW115287   4.775   6.474   4.422
 5067SOL    HW215288   4.647   6.412   4.475
 5068SOL     OW15289   2.648   5.672   2.720
 5068SOL    HW115290   2.568   5.694   2.672
 5068SOL    HW215291   2.702   5.751   2.713
 5069SOL     OW15292   2.586   6.286   3.644
 5069SOL    HW115293   2.627   6.302   3.558
 5069SOL    HW215294   2.621   6.201   3.671
 5070SOL     OW15295   4.844   5.365   3.693
 5070SOL    HW115296   4.773   5.359   3.630
 5070SOL    HW215297   4.851   5.277   3.730
 5071SOL     OW15298   3.622   6.342   4.280
 5071SOL    HW115299   3.701   6.296   4.307
 5071SOL    HW215300   3.620   6.420   4.335
 5072SOL     OW15301   3.895   5.951   3.502
 5072SOL    HW115302   3.894   6.033   3.453
 5072SOL    HW215303   3.804   5.940   3.531
 5073SOL     OW15304   2.775   5.661   3.888
 5073SOL    HW115305   2.718   5.709   3.829
 5073SOL    HW215306   2.815   5.593   3.833
 5074SOL     OW15307   3.867   5.214   3.113
 5074SOL    HW115308   3.888   5.271   3.038
 5074SOL    HW215309   3.923   5.138   3.102
 5075SOL     OW15310   2.886   5.518   2.649
 5075SOL    HW115311   2.876   5.452   2.718
 5075SOL    HW215312   2.809   5.574   2.660
 5076SOL     OW15313   2.927   5.063   2.568
 5076SOL    HW115314   2.967   5.051   2.481
 5076SOL    HW215315   3.001   5.080   2.626
 5077SOL     OW15316   3.777   5.862   2.911
 5077SOL    HW115317   3.868   5.884   2.894
 5077SOL    HW215318   3.727   5.936   2.876
 5078SOL     OW15319   3.414   5.341   2.700
 5078SOL    HW115320   3.456   5.406   2.644
 5078SOL    HW215321   3.361   5.288   2.640
 5079SOL     OW15322   4.743   6.580   3.649
 5079SOL    HW115323   4.649   6.593   3.641
 5079SOL    HW215324   4.780   6.625   3.573
 5080SOL     OW15325   3.558   5.770   3.809
 5080SOL    HW115326   3.509   5.790   3.889
 5080SOL    HW215327   3.650   5.782   3.834
 5081SOL     OW15328   2.793   5.288   3.482
 5081SOL    HW115329   2.733   5.359   3.505
 5081SOL    HW215330   2.841   5.321   3.406
 5082SOL     OW15331   2.764   5.378   3.793
 5082SOL    HW115332   2.784   5.389   3.700
 5082SOL    HW215333   2.849   5.367   3.835
 5083SOL     OW15334   3.906   5.695   4.755
 5083SOL    HW115335   3.834   5.693   4.692
 5083SOL    HW215336   3.869   5.657   4.835
 5084SOL     OW15337   3.268   6.071   2.575
 5084SOL    HW115338   3.231   6.160   2.579
 5084SOL    HW215339   3.197   6.017   2.542
 5085SOL     OW15340   4.808   5.329   3.039
 5085SOL    HW115341   4.806   5.281   2.957
 5085SOL    HW215342   4.851   5.269   3.100
 5086SOL     OW15343   2.671   5.945   2.598
 5086SOL    HW115344   2.653   6.028   2.640
 5086SOL    HW215345   2.611   5.941   2.524
 5087SOL     OW15346   3.685   6.057   2.728
 5087SOL    HW115347   3.764   6.112   2.735
 5087SOL    HW215348   3.624   6.109   2.676
 5088SOL     OW15349   4.141   6.505   2.718
 5088SOL    HW115350   4.150   6.443   2.646
 5088SOL    HW215351   4.067   6.561   2.693
 5089SOL     OW15352   2.533   4.985   3.489
 5089SOL    HW115353   2.539   4.891   3.468
 5089SOL    HW215354   2.441   5.006   3.474
 5090SOL     OW15355   3.790   5.519   2.515
 5090SOL    HW115356   3.754   5.581   2.578
 5090SOL    HW215357   3.871   5.488   2.554
 5091SOL     OW15358   4.641   5.202   4.581
 5091SOL    HW115359   4.565   5.166   4.535
 5091SOL    HW215360   4.688   5.126   4.615
 5092SOL     OW15361   4.584   5.158   3.962
 5092SOL    HW115362   4.549   5.081   3.916
 5092SOL    HW215363   4.675   5.164   3.933
 5093SOL     OW15364   4.645   5.325   3.514
 5093SOL    HW115365   4.567   5.290   3.557
 5093SOL    HW215366   4.617   5.411   3.481
 5094SOL     OW15367   3.383   5.347   3.975
 5094SOL    HW115368   3.343   5.430   3.952
 5094SOL    HW215369   3.448   5.331   3.906
 5095SOL     OW15370   4.557   6.338   2.845
 5095SOL    HW115371   4.497   6.268   2.822
 5095SOL    HW215372   4.615   6.300   2.910
 5096SOL     OW15373   3.422   5.857   3.437
 5096SOL    HW115374   3.418   5.770   3.478
 5096SOL    HW215375   3.467   5.842   3.354
 5097SOL     OW15376   4.830   5.993   4.631
 5097SOL    HW115377   4.838   5.951   4.545
 5097SOL    HW215378   4.740   6.024   4.635
 5098SOL     OW15379   3.217   6.075   3.517
 5098SOL    HW115380   3.273   6.011   3.472
 5098SOL    HW215381   3.251   6.078   3.606
 5099SOL     OW15382   3.154   5.543   2.723
 5099SOL    HW115383   3.158   5.569   2.815
 5099SOL    HW215384   3.070   5.498   2.714
 5100SOL     OW15385   4.145   5.642   4.230
 5100SOL    HW115386   4.052   5.652   4.253
 5100SOL    HW215387   4.184   5.600   4.306
 5101SOL     OW15388   3.532   6.082   3.343
 5101SOL    HW115389   3.627   6.092   3.338
 5101SOL    HW215390   3.519   6.008   3.401
 5102SOL     OW15391   4.530   5.853   2.917
 5102SOL    HW115392   4.445   5.834   2.877
 5102SOL    HW215393   4.582   5.774   2.900
 5103SOL     OW15394   4.295   5.262   3.941
 5103SOL    HW115395   4.353   5.234   4.012
 5103SOL    HW215396   4.210   5.275   3.983
 5104SOL     OW15397   4.313   5.811   4.071
 5104SOL    HW115398   4.292   5.805   3.978
 5104SOL    HW215399   4.246   5.758   4.114
 5105SOL     OW15400   2.913   5.719   4.866
 5105SOL    HW115401   2.844   5.750   4.807
 5105SOL    HW215402   2.890   5.628   4.884
 5106SOL     OW15403   3.495   5.383   3.364
 5106SOL    HW115404   3.434   5.339   3.423
 5106SOL    HW215405   3.476   5.346   3.278
 5107SOL     OW15406   2.709   6.037   3.731
 5107SOL    HW115407   2.679   5.947   3.747
 5107SOL    HW215408   2.712   6.077   3.818
 5108SOL     OW15409   4.724   5.564   3.368
 5108SOL    HW115410   4.817   5.563   3.345
 5108SOL    HW215411   4.696   5.654   3.349
 5109SOL     OW15412   3.401   5.670   2.771
 5109SOL    HW115413   3.338   5.743   2.774
 5109SOL    HW215414   3.365   5.610   2.706
 5110SOL     OW15415   4.711   6.091   4.207
 5110SOL    HW115416   4.769   6.019   4.232
 5110SOL    HW215417   4.623   6.053   4.212
 5111SOL     OW15418   3.178   5.678   4.233
 5111SOL    HW115419   3.235   5.633   4.296
 5111SOL    HW215420   3.187   5.771   4.255
 5112SOL     OW15421   4.778   5.837   3.319
 5112SOL    HW115422   4.832   5.816   3.243
 5112SOL    HW215423   4.688   5.827   3.289
 5113SOL     OW15424   4.219   4.982   4.271
 5113SOL    HW115425   4.184   4.940   4.349
 5113SOL    HW215426   4.147   5.034   4.237
 5114SOL     OW15427   4.848   5.123   3.865
 5114SOL    HW115428   4.942   5.135   3.874
 5114SOL    HW215429   4.838   5.046   3.810
 5115SOL     OW15430   4.619   5.374   4.818
 5115SOL    HW115431   4.701   5.346   4.858
 5115SOL    HW215432   4.618   5.330   4.733
 5116SOL     OW15433   3.952   5.582   3.013
 5116SOL    HW115434   4.035   5.629   3.009
 5116SOL    HW215435   3.927   5.587   3.105
 5117SOL     OW15436   4.805   6.001   2.667
 5117SOL    HW115437   4.878   6.054   2.633
 5117SOL    HW215438   4.831   5.911   2.650
 5118SOL     OW15439   4.595   5.424   3.165
 5118SOL    HW115440   4.665   5.390   3.111
 5118SOL    HW215441   4.639   5.466   3.239
 5119SOL     OW15442   3.582   6.092   4.540
 5119SOL    HW115443   3.570   6.099   4.445
 5119SOL    HW215444   3.536   6.011   4.564
 5120SOL     OW15445   6.310   1.583   0.888
 5120SOL    HW115446   6.373   1.553   0.953
 5120SOL    HW215447   6.261   1.652   0.933
 5121SOL     OW15448   5.619   2.336   0.377
 5121SOL    HW115449   5.627   2.427   0.348
 5121SOL    HW215450   5.683   2.289   0.324
 5122SOL     OW15451   6.845   1.514   1.527
 5122SOL    HW115452   6.894   1.441   1.563
 5122SOL    HW215453   6.788   1.543   1.599
 5123SOL     OW15454   6.407   0.206   2.188
 5123SOL    HW115455   6.330   0.254   2.219
 5123SOL    HW215456   6.480   0.243   2.238
 5124SOL     OW15457   5.323   2.234   1.980
 5124SOL    HW115458   5.336   2.173   2.053
 5124SOL    HW215459   5.266   2.187   1.920
 5125SOL     OW15460   5.295   2.468   1.836
 5125SOL    HW115461   5.201   2.479   1.823
 5125SOL    HW215462   5.303   2.384   1.883
 5126SOL     OW15463   6.371   1.675   1.188
 5126SOL    HW115464   6.418   1.687   1.271
 5126SOL    HW215465   6.385   1.583   1.166
 5127SOL     OW15466   6.734   2.124   0.610
 5127SOL    HW115467   6.777   2.209   0.612
 5127SOL    HW215468   6.805   2.061   0.623
 5128SOL     OW15469   5.361   0.934   0.777
 5128SOL    HW115470   5.429   0.985   0.734
 5128SOL    HW215471   5.352   0.976   0.863
 5129SOL     OW15472   5.677   1.503   0.672
 5129SOL    HW115473   5.647   1.540   0.755
 5129SOL    HW215474   5.772   1.498   0.681
 5130SOL     OW15475   5.879   2.380   2.486
 5130SOL    HW115476   5.833   2.343   2.411
 5130SOL    HW215477   5.871   2.314   2.554
 5131SOL     OW15478   5.453   1.755   1.409
 5131SOL    HW115479   5.375   1.729   1.360
 5131SOL    HW215480   5.419   1.801   1.486
 5132SOL     OW15481   5.538   0.727   0.778
 5132SOL    HW115482   5.591   0.744   0.856
 5132SOL    HW215483   5.479   0.802   0.773
 5133SOL     OW15484   5.904   2.433   1.435
 5133SOL    HW115485   5.921   2.371   1.364
 5133SOL    HW215486   5.832   2.488   1.403
 5134SOL     OW15487   5.088   1.833   0.457
 5134SOL    HW115488   5.024   1.769   0.426
 5134SOL    HW215489   5.172   1.790   0.444
 5135SOL     OW15490   6.114   2.142   0.741
 5135SOL    HW115491   6.084   2.215   0.794
 5135SOL    HW215492   6.169   2.090   0.801
 5136SOL     OW15493   5.108   1.400   0.733
 5136SOL    HW115494   5.047   1.440   0.796
 5136SOL    HW215495   5.051   1.353   0.672
 5137SOL     OW15496   6.167   0.410   2.141
 5137SOL    HW115497   6.172   0.370   2.055
 5137SOL    HW215498   6.176   0.504   2.125
 5138SOL     OW15499   6.236   2.367   1.878
 5138SOL    HW115500   6.174   2.304   1.841
 5138SOL    HW215501   6.301   2.314   1.924
 5139SOL     OW15502   5.852   1.008   1.880
 5139SOL    HW115503   5.793   0.979   1.949
 5139SOL    HW215504   5.839   1.103   1.874
 5140SOL     OW15505   5.322   0.135   2.075
 5140SOL    HW115506   5.318   0.078   2.152
 5140SOL    HW215507   5.340   0.076   2.002
 5141SOL     OW15508   6.265   1.519   2.249
 5141SOL    HW115509   6.301   1.430   2.240
 5141SOL    HW215510   6.317   1.572   2.189
 5142SOL     OW15511   5.799   0.446   0.499
 5142SOL    HW115512   5.837   0.454   0.412
 5142SOL    HW215513   5.755   0.529   0.514
 5143SOL     OW15514   5.410   1.450   0.582
 5143SOL    HW115515   5.488   1.464   0.635
 5143SOL    HW215516   5.381   1.361   0.604
 5144SOL     OW15517   5.240   1.158   0.563
 5144SOL    HW115518   5.154   1.186   0.531
 5144SOL    HW215519   5.251   1.069   0.529
 5145SOL     OW15520   5.037   0.489   1.792
 5145SOL    HW115521   5.053   0.462   1.702
 5145SOL    HW215522   4.952   0.451   1.814
 5146SOL     OW15523   6.251   1.443   0.527
 5146SOL    HW115524   6.209   1.440   0.613
 5146SOL    HW215525   6.313   1.516   0.533
 5147SOL     OW15526   5.139   1.775   1.991
 5147SOL    HW115527   5.062   1.806   2.038
 5147SOL    HW215528   5.176   1.854   1.951
 5148SOL     OW15529   5.832   1.423   2.194
 5148SOL    HW115530   5.809   1.474   2.117
 5148SOL    HW215531   5.787   1.340   2.182
 5149SOL     OW15532   6.049   0.106   1.158
 5149SOL    HW115533   6.133   0.118   1.114
 5149SOL    HW215534   6.062   0.033   1.217
 5150SOL     OW15535   5.006   1.998   0.632
 5150SOL    HW115536   5.036   1.951   0.555
 5150SOL    HW215537   5.081   1.997   0.692
 5151SOL     OW15538   5.909   2.428   0.579
 5151SOL    HW115539   5.935   2.444   0.488
 5151SOL    HW215540   5.989   2.441   0.629
 5152SOL     OW15541   5.527   0.493   1.647
 5152SOL    HW115542   5.541   0.582   1.681
 5152SOL    HW215543   5.571   0.436   1.710
 5153SOL     OW15544   6.256   0.299   0.888
 5153SOL    HW115545   6.274   0.275   0.797
 5153SOL    HW215546   6.181   0.358   0.883
 5154SOL     OW15547   5.388   1.828   1.841
 5154SOL    HW115548   5.475   1.838   1.803
 5154SOL    HW215549   5.400   1.764   1.911
 5155SOL     OW15550   5.220   0.249   1.749
 5155SOL    HW115551   5.245   0.242   1.842
 5155SOL    HW215552   5.228   0.342   1.729
 5156SOL     OW15553   5.530   1.505   1.553
 5156SOL    HW115554   5.499   1.576   1.498
 5156SOL    HW215555   5.597   1.544   1.608
 5157SOL     OW15556   5.623   0.336   1.854
 5157SOL    HW115557   5.580   0.335   1.940
 5157SOL    HW215558   5.620   0.245   1.825
 5158SOL     OW15559   5.346   1.125   1.919
 5158SOL    HW115560   5.288   1.090   1.851
 5158SOL    HW215561   5.415   1.059   1.927
 5159SOL     OW15562   6.034   1.789   1.646
 5159SOL    HW115563   6.055   1.839   1.567
 5159SOL    HW215564   6.032   1.698   1.617
 5160SOL     OW15565   5.462   0.277   1.487
 5160SOL    HW115566   5.483   0.219   1.559
 5160SOL    HW215567   5.484   0.365   1.519
 5161SOL     OW15568   5.823   1.939   1.846
 5161SOL    HW115569   5.816   1.861   1.901
 5161SOL    HW215570   5.855   1.907   1.762
 5162SOL     OW15571   6.392   2.466   1.508
 5162SOL    HW115572   6.383   2.546   1.560
 5162SOL    HW215573   6.371   2.395   1.569
 5163SOL     OW15574   5.717   0.603   1.434
 5163SOL    HW115575   5.698   0.682   1.384
 5163SOL    HW215576   5.643   0.595   1.496
 5164SOL     OW15577   5.814   2.243   0.764
 5164SOL    HW115578   5.851   2.269   0.679
 5164SOL    HW215579   5.725   2.277   0.763
 5165SOL     OW15580   5.603   0.257   0.520
 5165SOL    HW115581   5.680   0.312   0.529
 5165SOL    HW215582   5.585   0.226   0.608
 5166SOL     OW15583   5.042   0.419   2.190
 5166SOL    HW115584   5.035   0.334   2.148
 5166SOL    HW215585   5.068   0.479   2.119
 5167SOL     OW15586   6.036   2.484   0.336
 5167SOL    HW115587   6.086   2.565   0.337
 5167SOL    HW215588   5.996   2.482   0.249
 5168SOL     OW15589   6.571   0.363   2.453
 5168SOL    HW115590   6.637   0.308   2.496
 5168SOL    HW215591   6.566   0.441   2.507
 5169SOL     OW15592   6.372   1.258   1.901
 5169SOL    HW115593   6.409   1.307   1.974
 5169SOL    HW215594   6.389   1.166   1.923
 5170SOL     OW15595   5.583   1.018   1.760
 5170SOL    HW115596   5.645   1.065   1.704
 5170SOL    HW215597   5.498   1.031   1.717
 5171SOL     OW15598   6.595   1.249   0.363
 5171SOL    HW115599   6.512   1.292   0.343
 5171SOL    HW215600   6.658   1.289   0.303
 5172SOL     OW15601   5.400   0.555   1.943
 5172SOL    HW115602   5.402   0.536   1.849
 5172SOL    HW215603   5.430   0.474   1.985
 5173SOL     OW15604   6.085   1.109   1.460
 5173SOL    HW115605   6.164   1.161   1.475
 5173SOL    HW215606   6.107   1.022   1.493
 5174SOL     OW15607   5.588   0.360   1.137
 5174SOL    HW115608   5.550   0.272   1.135
 5174SOL    HW215609   5.515   0.417   1.160
 5175SOL     OW15610   5.152   2.202   1.197
 5175SOL    HW115611   5.086   2.225   1.132
 5175SOL    HW215612   5.209   2.139   1.154
 5176SOL     OW15613   5.485   0.473   0.728
 5176SOL    HW115614   5.561   0.415   0.726
 5176SOL    HW215615   5.513   0.547   0.781
 5177SOL     OW15616   6.730   0.248   0.152
 5177SOL    HW115617   6.794   0.270   0.220
 5177SOL    HW215618   6.753   0.160   0.124
 5178SOL     OW15619   5.575   2.292   1.343
 5178SOL    HW115620   5.601   2.279   1.251
 5178SOL    HW215621   5.487   2.330   1.337
 5179SOL     OW15622   6.148   0.613   0.856
 5179SOL    HW115623   6.126   0.646   0.769
 5179SOL    HW215624   6.093   0.535   0.867
 5180SOL     OW15625   6.293   0.907   1.401
 5180SOL    HW115626   6.340   0.836   1.445
 5180SOL    HW215627   6.342   0.986   1.425
 5181SOL     OW15628   5.563   0.968   2.390
 5181SOL    HW115629   5.474   1.002   2.377
 5181SOL    HW215630   5.552   0.874   2.402
 5182SOL     OW15631   5.062   1.401   1.457
 5182SOL    HW115632   4.996   1.380   1.523
 5182SOL    HW215633   5.037   1.488   1.425
 5183SOL     OW15634   5.026   2.225   0.404
 5183SOL    HW115635   5.121   2.234   0.407
 5183SOL    HW215636   5.004   2.178   0.485
 5184SOL     OW15637   5.283   0.719   1.686
 5184SOL    HW115638   5.190   0.702   1.673
 5184SOL    HW215639   5.323   0.700   1.601
 5185SOL     OW15640   4.990   0.590   0.431
 5185SOL    HW115641   5.037   0.518   0.473
 5185SOL    HW215642   5.052   0.625   0.367
 5186SOL     OW15643   5.027   0.885   0.987
 5186SOL    HW115644   4.949   0.836   0.960
 5186SOL    HW215645   5.021   0.967   0.938
 5187SOL     OW15646   6.024   0.879   1.693
 5187SOL    HW115647   6.104   0.932   1.699
 5187SOL    HW215648   5.962   0.923   1.750
 5188SOL     OW15649   5.315   0.986   1.663
 5188SOL    HW115650   5.242   1.033   1.624
 5188SOL    HW215651   5.321   0.905   1.613
 5189SOL     OW15652   5.126   0.098   1.400
 5189SOL    HW115653   5.139   0.093   1.305
 5189SOL    HW215654   5.202   0.146   1.432
 5190SOL     OW15655   5.025   2.397   2.116
 5190SOL    HW115656   4.979   2.333   2.171
 5190SOL    HW215657   4.999   2.376   2.027
 5191SOL     OW15658   5.243   0.868   2.171
 5191SOL    HW115659   5.268   0.960   2.186
 5191SOL    HW215660   5.267   0.851   2.080
 5192SOL     OW15661   5.950   1.314   1.594
 5192SOL    HW115662   6.007   1.350   1.661
 5192SOL    HW215663   5.991   1.232   1.568
 5193SOL     OW15664   5.821   0.239   1.015
 5193SOL    HW115665   5.878   0.200   1.081
 5193SOL    HW215666   5.741   0.262   1.063
 5194SOL     OW15667   5.605   1.669   2.431
 5194SOL    HW115668   5.560   1.685   2.514
 5194SOL    HW215669   5.675   1.609   2.453
 5195SOL     OW15670   4.996   0.850   2.336
 5195SOL    HW115671   5.067   0.795   2.303
 5195SOL    HW215672   4.938   0.861   2.261
 5196SOL     OW15673   5.669   0.681   1.021
 5196SOL    HW115674   5.726   0.605   1.008
 5196SOL    HW215675   5.695   0.717   1.106
 5197SOL     OW15676   6.006   0.523   2.471
 5197SOL    HW115677   6.099   0.543   2.479
 5197SOL    HW215678   6.003   0.441   2.423
 5198SOL     OW15679   4.991   0.182   2.057
 5198SOL    HW115680   5.005   0.094   2.093
 5198SOL    HW215681   4.979   0.168   1.963
 5199SOL     OW15682   5.748   1.676   1.629
 5199SOL    HW115683   5.812   1.671   1.700
 5199SOL    HW215684   5.705   1.761   1.641
 5200SOL     OW15685   5.640   0.699   0.521
 5200SOL    HW115686   5.690   0.780   0.525
 5200SOL    HW215687   5.619   0.679   0.612
 5201SOL     OW15688   5.241   0.729   0.976
 5201SOL    HW115689   5.168   0.791   0.982
 5201SOL    HW215690   5.295   0.762   0.904
 5202SOL     OW15691   5.340   2.045   1.105
 5202SOL    HW115692   5.389   1.972   1.066
 5202SOL    HW215693   5.346   2.029   1.199
 5203SOL     OW15694   5.312   2.110   2.228
 5203SOL    HW115695   5.249   2.049   2.267
 5203SOL    HW215696   5.390   2.102   2.283
 5204SOL     OW15697   5.076   1.118   1.486
 5204SOL    HW115698   5.082   1.210   1.460
 5204SOL    HW215699   4.983   1.099   1.486
 5205SOL     OW15700   5.800   2.147   2.310
 5205SOL    HW115701   5.863   2.083   2.344
 5205SOL    HW215702   5.815   2.147   2.215
 5206SOL     OW15703   5.645   1.942   1.255
 5206SOL    HW115704   5.568   1.893   1.284
 5206SOL    HW215705   5.647   2.019   1.312
 5207SOL     OW15706   5.094   0.471   1.062
 5207SOL    HW115707   5.065   0.513   0.982
 5207SOL    HW215708   5.015   0.458   1.113
 5208SOL     OW15709   5.641   0.976   2.068
 5208SOL    HW115710   5.667   0.899   2.117
 5208SOL    HW215711   5.573   0.945   2.008
 5209SOL     OW15712   5.053   2.216   0.934
 5209SOL    HW115713   4.981   2.169   0.892
 5209SOL    HW215714   5.132   2.187   0.888
 5210SOL     OW15715   6.455   1.102   1.261
 5210SOL    HW115716   6.432   1.022   1.215
 5210SOL    HW215717   6.373   1.152   1.264
 5211SOL     OW15718   5.422   1.290   0.340
 5211SOL    HW115719   5.513   1.295   0.368
 5211SOL    HW215720   5.382   1.370   0.376
 5212SOL     OW15721   6.045   2.170   1.782
 5212SOL    HW115722   6.002   2.256   1.783
 5212SOL    HW215723   5.976   2.109   1.806
 5213SOL     OW15724   6.386   0.581   1.848
 5213SOL    HW115725   6.337   0.506   1.815
 5213SOL    HW215726   6.338   0.610   1.925
 5214SOL     OW15727   6.778   0.733   0.776
 5214SOL    HW115728   6.721   0.748   0.852
 5214SOL    HW215729   6.744   0.653   0.737
 5215SOL     OW15730   5.343   1.135   2.348
 5215SOL    HW115731   5.270   1.170   2.297
 5215SOL    HW215732   5.337   1.180   2.432
 5216SOL     OW15733   5.016   0.111   1.649
 5216SOL    HW115734   5.088   0.169   1.671
 5216SOL    HW215735   5.032   0.086   1.558
 5217SOL     OW15736   5.904   0.630   1.153
 5217SOL    HW115737   5.905   0.688   1.229
 5217SOL    HW215738   5.990   0.587   1.155
 5218SOL     OW15739   5.749   0.664   2.474
 5218SOL    HW115740   5.689   0.631   2.542
 5218SOL    HW215741   5.823   0.604   2.477
 5219SOL     OW15742   5.533   0.412   2.445
 5219SOL    HW115743   5.471   0.470   2.489
 5219SOL    HW215744   5.489   0.388   2.364
 5220SOL     OW15745   5.601   2.464   1.561
 5220SOL    HW115746   5.632   2.522   1.492
 5220SOL    HW215747   5.601   2.377   1.521
 5221SOL     OW15748   6.280   1.239   0.894
 5221SOL    HW115749   6.372   1.254   0.871
 5221SOL    HW215750   6.231   1.276   0.820
 5222SOL     OW15751   6.262   1.765   0.444
 5222SOL    HW115752   6.280   1.852   0.410
 5222SOL    HW215753   6.180   1.739   0.402
 5223SOL     OW15754   5.215   1.356   1.761
 5223SOL    HW115755   5.181   1.269   1.781
 5223SOL    HW215756   5.158   1.388   1.691
 5224SOL     OW15757   6.021   1.552   1.474
 5224SOL    HW115758   5.983   1.464   1.465
 5224SOL    HW215759   5.960   1.609   1.427
 5225SOL     OW15760   6.438   1.695   0.631
 5225SOL    HW115761   6.387   1.718   0.553
 5225SOL    HW215762   6.372   1.665   0.693
 5226SOL     OW15763   5.771   0.183   2.234
 5226SOL    HW115764   5.783   0.123   2.161
 5226SOL    HW215765   5.858   0.218   2.251
 5227SOL     OW15766   5.613   1.766   0.443
 5227SOL    HW115767   5.678   1.824   0.403
 5227SOL    HW215768   5.633   1.768   0.537
 5228SOL     OW15769   5.577   1.066   0.630
 5228SOL    HW115770   5.550   1.051   0.540
 5228SOL    HW215771   5.672   1.055   0.629
 5229SOL     OW15772   5.755   2.204   2.029
 5229SOL    HW115773   5.743   2.120   1.985
 5229SOL    HW215774   5.671   2.222   2.070
 5230SOL     OW15775   6.111   2.271   0.094
 5230SOL    HW115776   6.119   2.192   0.041
 5230SOL    HW215777   6.052   2.328   0.044
 5231SOL     OW15778   5.391   0.703   0.434
 5231SOL    HW115779   5.473   0.700   0.485
 5231SOL    HW215780   5.419   0.724   0.345
 5232SOL     OW15781   5.964   2.118   0.471
 5232SOL    HW115782   5.994   2.106   0.561
 5232SOL    HW215783   6.018   2.190   0.438
 5233SOL     OW15784   5.654   1.547   1.953
 5233SOL    HW115785   5.607   1.464   1.944
 5233SOL    HW215786   5.610   1.592   2.025
 5234SOL     OW15787   4.990   0.553   0.823
 5234SOL    HW115788   5.020   0.625   0.768
 5234SOL    HW215789   5.005   0.474   0.770
 5235SOL     OW15790   6.364   1.727   1.713
 5235SOL    HW115791   6.378   1.814   1.752
 5235SOL    HW215792   6.311   1.745   1.635
 5236SOL     OW15793   5.103   0.489   1.551
 5236SOL    HW115794   5.164   0.544   1.503
 5236SOL    HW215795   5.071   0.425   1.487
 5237SOL     OW15796   5.599   1.609   0.902
 5237SOL    HW115797   5.663   1.664   0.947
 5237SOL    HW215798   5.580   1.538   0.964
 5238SOL     OW15799   6.377   0.568   1.303
 5238SOL    HW115800   6.459   0.567   1.253
 5238SOL    HW215801   6.308   0.557   1.237
 5239SOL     OW15802   5.179   1.241   2.116
 5239SOL    HW115803   5.233   1.308   2.158
 5239SOL    HW215804   5.219   1.230   2.029
 5240SOL     OW15805   5.705   0.147   1.332
 5240SOL    HW115806   5.691   0.235   1.367
 5240SOL    HW215807   5.634   0.134   1.269
 5241SOL     OW15808   6.387   0.391   0.363
 5241SOL    HW115809   6.411   0.471   0.408
 5241SOL    HW215810   6.452   0.382   0.293
 5242SOL     OW15811   5.024   2.392   1.830
 5242SOL    HW115812   4.997   2.457   1.765
 5242SOL    HW215813   4.984   2.310   1.801
 5243SOL     OW15814   6.348   1.174   1.556
 5243SOL    HW115815   6.419   1.113   1.576
 5243SOL    HW215816   6.391   1.248   1.514
 5244SOL     OW15817   6.010   1.661   2.267
 5244SOL    HW115818   5.980   1.583   2.219
 5244SOL    HW215819   6.103   1.667   2.248
 5245SOL     OW15820   5.655   1.897   0.744
 5245SOL    HW115821   5.750   1.891   0.740
 5245SOL    HW215822   5.632   1.963   0.679
 5246SOL     OW15823   6.366   2.389   0.870
 5246SOL    HW115824   6.274   2.414   0.873
 5246SOL    HW215825   6.395   2.415   0.783
 5247SOL     OW15826   5.528   2.397   2.042
 5247SOL    HW115827   5.546   2.444   1.960
 5247SOL    HW215828   5.451   2.344   2.024
 5248SOL     OW15829   4.992   1.832   1.125
 5248SOL    HW115830   4.957   1.862   1.041
 5248SOL    HW215831   5.061   1.771   1.102
 5249SOL     OW15832   6.448   1.962   1.272
 5249SOL    HW115833   6.510   2.031   1.295
 5249SOL    HW215834   6.363   2.005   1.273
 5250SOL     OW15835   5.323   2.375   1.324
 5250SOL    HW115836   5.306   2.460   1.284
 5250SOL    HW215837   5.272   2.313   1.272
 5251SOL     OW15838   6.067   0.342   1.289
 5251SOL    HW115839   6.050   0.258   1.246
 5251SOL    HW215840   6.111   0.395   1.223
 5252SOL     OW15841   5.387   0.825   1.947
 5252SOL    HW115842   5.401   0.731   1.950
 5252SOL    HW215843   5.354   0.841   1.858
 5253SOL     OW15844   5.234   1.304   0.939
 5253SOL    HW115845   5.325   1.275   0.934
 5253SOL    HW215846   5.216   1.342   0.852
 5254SOL     OW15847   6.006   0.309   0.645
 5254SOL    HW115848   6.069   0.325   0.575
 5254SOL    HW215849   5.922   0.337   0.610
 5255SOL     OW15850   5.263   0.395   2.360
 5255SOL    HW115851   5.186   0.422   2.312
 5255SOL    HW215852   5.274   0.302   2.339
 5256SOL     OW15853   6.339   2.159   2.047
 5256SOL    HW115854   6.265   2.159   2.108
 5256SOL    HW215855   6.415   2.139   2.101
 5257SOL     OW15856   6.114   1.908   1.881
 5257SOL    HW115857   6.202   1.933   1.854
 5257SOL    HW215858   6.080   1.857   1.807
 5258SOL     OW15859   6.619   1.604   1.674
 5258SOL    HW115860   6.543   1.657   1.651
 5258SOL    HW215861   6.584   1.516   1.686
 5259SOL     OW15862   5.303   2.018   1.369
 5259SOL    HW115863   5.282   1.964   1.446
 5259SOL    HW215864   5.264   2.103   1.389
 5260SOL     OW15865   5.642   0.225   0.783
 5260SOL    HW115866   5.614   0.133   0.787
 5260SOL    HW215867   5.705   0.234   0.855
 5261SOL     OW15868   5.072   1.129   1.809
 5261SOL    HW115869   4.999   1.091   1.857
 5261SOL    HW215870   5.086   1.068   1.736
 5262SOL     OW15871   5.461   2.402   0.851
 5262SOL    HW115872   5.516   2.402   0.772
 5262SOL    HW215873   5.381   2.447   0.824
 5263SOL     OW15874   5.826   1.117   0.557
 5263SOL    HW115875   5.869   1.039   0.523
 5263SOL    HW215876   5.892   1.158   0.614
 5264SOL     OW15877   5.460   1.870   0.943
 5264SOL    HW115878   5.511   1.896   0.866
 5264SOL    HW215879   5.514   1.802   0.984
 5265SOL     OW15880   6.369   2.421   2.247
 5265SOL    HW115881   6.380   2.512   2.218
 5265SOL    HW215882   6.274   2.410   2.254
 5266SOL     OW15883   5.207   1.961   0.817
 5266SOL    HW115884   5.269   1.969   0.890
 5266SOL    HW215885   5.193   1.867   0.807
 5267SOL     OW15886   5.666   1.261   1.574
 5267SOL    HW115887   5.623   1.347   1.581
 5267SOL    HW215888   5.759   1.282   1.564
 5268SOL     OW15889   6.120   1.450   0.758
 5268SOL    HW115890   6.039   1.461   0.809
 5268SOL    HW215891   6.189   1.481   0.817
 5269SOL     OW15892   6.216   0.498   1.101
 5269SOL    HW115893   6.219   0.412   1.058
 5269SOL    HW215894   6.215   0.561   1.028
 5270SOL     OW15895   5.603   2.093   0.558
 5270SOL    HW115896   5.677   2.142   0.522
 5270SOL    HW215897   5.532   2.156   0.563
 5271SOL     OW15898   5.525   0.039   2.334
 5271SOL    HW115899   5.515  -0.041   2.282
 5271SOL    HW215900   5.603   0.081   2.298
 5272SOL     OW15901   5.493   1.348   1.868
 5272SOL    HW115902   5.416   1.390   1.830
 5272SOL    HW215903   5.462   1.260   1.892
 5273SOL     OW15904   5.008   0.768   1.564
 5273SOL    HW115905   4.925   0.730   1.535
 5273SOL    HW215906   5.038   0.820   1.489
 5274SOL     OW15907   6.128   0.062   0.675
 5274SOL    HW115908   6.084   0.147   0.673
 5274SOL    HW215909   6.216   0.080   0.640
 5275SOL     OW15910   6.282   1.856   1.484
 5275SOL    HW115911   6.227   1.932   1.464
 5275SOL    HW215912   6.368   1.878   1.449
 5276SOL     OW15913   6.852   1.195   0.252
 5276SOL    HW115914   6.888   1.153   0.173
 5276SOL    HW215915   6.782   1.136   0.280
 5277SOL     OW15916   5.867   1.664   1.873
 5277SOL    HW115917   5.779   1.628   1.888
 5277SOL    HW215918   5.923   1.615   1.933
 5278SOL     OW15919   5.705   0.748   2.196
 5278SOL    HW115920   5.720   0.723   2.288
 5278SOL    HW215921   5.633   0.691   2.168
 5279SOL     OW15922   5.958   1.262   1.088
 5279SOL    HW115923   6.010   1.249   1.009
 5279SOL    HW215924   5.882   1.311   1.058
 5280SOL     OW15925   5.070   0.809   1.270
 5280SOL    HW115926   5.076   0.842   1.181
 5280SOL    HW215927   4.979   0.781   1.279
 5281SOL     OW15928   6.346   2.003   1.831
 5281SOL    HW115929   6.334   2.052   1.912
 5281SOL    HW215930   6.405   2.057   1.778
 5282SOL     OW15931   5.359   2.065   0.441
 5282SOL    HW115932   5.450   2.042   0.459
 5282SOL    HW215933   5.309   1.988   0.469
 5283SOL     OW15934   5.813   1.691   1.358
 5283SOL    HW115935   5.738   1.726   1.310
 5283SOL    HW215936   5.779   1.674   1.446
 5284SOL     OW15937   6.183   2.119   1.537
 5284SOL    HW115938   6.134   2.116   1.455
 5284SOL    HW215939   6.116   2.116   1.606
 5285SOL     OW15940   5.531   2.132   2.394
 5285SOL    HW115941   5.619   2.170   2.390
 5285SOL    HW215942   5.536   2.067   2.465
 5286SOL     OW15943   6.660   0.965   0.624
 5286SOL    HW115944   6.718   1.040   0.638
 5286SOL    HW215945   6.694   0.897   0.681
 5287SOL     OW15946   6.260   1.292   1.281
 5287SOL    HW115947   6.257   1.367   1.341
 5287SOL    HW215948   6.173   1.291   1.240
 5288SOL     OW15949   5.423   1.033   1.019
 5288SOL    HW115950   5.489   0.998   1.079
 5288SOL    HW215951   5.369   1.091   1.074
 5289SOL     OW15952   5.335   1.414   2.230
 5289SOL    HW115953   5.427   1.409   2.207
 5289SOL    HW215954   5.301   1.487   2.177
 5290SOL     OW15955   5.190   1.703   1.348
 5290SOL    HW115956   5.195   1.710   1.253
 5290SOL    HW215957   5.097   1.687   1.365
 5291SOL     OW15958   5.616   1.045   1.426
 5291SOL    HW115959   5.692   1.100   1.410
 5291SOL    HW215960   5.567   1.091   1.494
 5292SOL     OW15961   6.197   0.119   1.764
 5292SOL    HW115962   6.111   0.128   1.722
 5292SOL    HW215963   6.194   0.033   1.805
 5293SOL     OW15964   5.709   2.107   1.476
 5293SOL    HW115965   5.800   2.081   1.458
 5293SOL    HW215966   5.701   2.194   1.438
 5294SOL     OW15967   5.341   1.309   1.409
 5294SOL    HW115968   5.392   1.349   1.480
 5294SOL    HW215969   5.256   1.353   1.414
 5295SOL     OW15970   5.908   1.912   0.769
 5295SOL    HW115971   5.987   1.966   0.776
 5295SOL    HW215972   5.887   1.887   0.859
 5296SOL     OW15973   6.213   0.226   2.454
 5296SOL    HW115974   6.211   0.168   2.530
 5296SOL    HW215975   6.297   0.272   2.461
 5297SOL     OW15976   5.896   1.549   0.363
 5297SOL    HW115977   5.824   1.494   0.393
 5297SOL    HW215978   5.932   1.587   0.444
 5298SOL     OW15979   6.084   2.379   0.888
 5298SOL    HW115980   5.993   2.408   0.888
 5298SOL    HW215981   6.124   2.425   0.814
 5299SOL     OW15982   5.043   2.430   0.614
 5299SOL    HW115983   4.968   2.388   0.655
 5299SOL    HW215984   5.040   2.403   0.523
 5300SOL     OW15985   5.221   0.038   0.808
 5300SOL    HW115986   5.159   0.052   0.880
 5300SOL    HW215987   5.169  -0.005   0.740
 5301SOL     OW15988   6.208   0.400   1.788
 5301SOL    HW115989   6.174   0.418   1.700
 5301SOL    HW215990   6.233   0.308   1.786
 5302SOL     OW15991   5.474   1.235   0.834
 5302SOL    HW115992   5.486   1.177   0.760
 5302SOL    HW215993   5.536   1.203   0.900
 5303SOL     OW15994   5.110   1.932   2.376
 5303SOL    HW115995   5.084   1.998   2.440
 5303SOL    HW215996   5.060   1.954   2.298
 5304SOL     OW15997   5.562   0.075   1.802
 5304SOL    HW115998   5.600   0.043   1.720
 5304SOL    HW215999   5.468   0.072   1.787
 5305SOL     OW16000   5.958   2.285   1.216
 5305SOL    HW116001   5.919   2.237   1.143
 5305SOL    HW216002   6.046   2.305   1.186
 5306SOL     OW16003   5.103   0.615   2.023
 5306SOL    HW116004   5.096   0.587   1.931
 5306SOL    HW216005   5.191   0.653   2.030
 5307SOL     OW16006   6.521   0.980   0.381
 5307SOL    HW116007   6.541   1.073   0.371
 5307SOL    HW216008   6.574   0.952   0.455
 5308SOL     OW16009   5.249   0.095   1.137
 5308SOL    HW116010   5.270   0.167   1.077
 5308SOL    HW216011   5.172   0.053   1.097
 5309SOL     OW16012   5.228   0.547   0.604
 5309SOL    HW116013   5.292   0.529   0.673
 5309SOL    HW216014   5.265   0.622   0.556
 5310SOL     OW16015   6.389   1.919   2.479
 5310SOL    HW116016   6.406   1.851   2.544
 5310SOL    HW216017   6.304   1.954   2.503
 5311SOL     OW16018   6.247   1.009   1.740
 5311SOL    HW116019   6.333   0.980   1.771
 5311SOL    HW216020   6.267   1.071   1.670
 5312SOL     OW16021   5.983   1.661   0.596
 5312SOL    HW116022   5.938   1.742   0.621
 5312SOL    HW216023   6.053   1.652   0.660
 5313SOL     OW16024   5.965   1.908   1.121
 5313SOL    HW116025   5.915   1.985   1.094
 5313SOL    HW216026   6.054   1.926   1.090
 5314SOL     OW16027   5.939   1.936   1.405
 5314SOL    HW116028   5.892   1.855   1.426
 5314SOL    HW216029   5.960   1.928   1.312
 5315SOL     OW16030   5.386   1.462   1.173
 5315SOL    HW116031   5.333   1.392   1.212
 5315SOL    HW216032   5.467   1.462   1.224
 5316SOL     OW16033   5.714   1.367   1.031
 5316SOL    HW116034   5.650   1.358   1.102
 5316SOL    HW216035   5.699   1.290   0.976
 5317SOL     OW16036   6.114   2.048   2.441
 5317SOL    HW116037   6.047   1.988   2.474
 5317SOL    HW216038   6.107   2.041   2.346
 5318SOL     OW16039   5.530   0.078   1.092
 5318SOL    HW116040   5.460   0.043   1.148
 5318SOL    HW216041   5.513   0.039   1.006
 5319SOL     OW16042   6.009   0.881   2.482
 5319SOL    HW116043   5.981   0.961   2.527
 5319SOL    HW216044   5.959   0.811   2.524
 5320SOL     OW16045   5.835   1.286   1.856
 5320SOL    HW116046   5.776   1.355   1.826
 5320SOL    HW216047   5.923   1.321   1.838
 5321SOL     OW16048   5.497   0.336   2.088
 5321SOL    HW116049   5.443   0.257   2.086
 5321SOL    HW216050   5.565   0.317   2.153
 5322SOL     OW16051   5.870   0.865   0.512
 5322SOL    HW116052   5.837   0.879   0.423
 5322SOL    HW216053   5.936   0.797   0.502
 5323SOL     OW16054   5.624   0.824   1.302
 5323SOL    HW116055   5.535   0.804   1.272
 5323SOL    HW216056   5.614   0.904   1.353
 5324SOL     OW16057   5.361   1.697   0.464
 5324SOL    HW116058   5.451   1.729   0.459
 5324SOL    HW216059   5.361   1.636   0.538
 5325SOL     OW16060   5.851   1.160   1.308
 5325SOL    HW116061   5.928   1.148   1.362
 5325SOL    HW216062   5.882   1.209   1.232
 5326SOL     OW16063   5.885   0.206   1.713
 5326SOL    HW116064   5.832   0.253   1.777
 5326SOL    HW216065   5.872   0.255   1.632
 5327SOL     OW16066   5.912   1.528   0.936
 5327SOL    HW116067   5.827   1.511   0.976
 5327SOL    HW216068   5.967   1.559   1.008
 5328SOL     OW16069   5.968   0.878   2.207
 5328SOL    HW116070   5.872   0.883   2.202
 5328SOL    HW216071   5.987   0.886   2.301
 5329SOL     OW16072   6.376   2.384   0.549
 5329SOL    HW116073   6.445   2.389   0.483
 5329SOL    HW216074   6.327   2.305   0.526
 5330SOL     OW16075   5.266   1.683   0.808
 5330SOL    HW116076   5.264   1.604   0.753
 5330SOL    HW216077   5.358   1.697   0.828
 5331SOL     OW16078   5.149   0.286   0.575
 5331SOL    HW116079   5.205   0.363   0.583
 5331SOL    HW216080   5.210   0.213   0.568
 5332SOL     OW16081   5.545   1.667   2.164
 5332SOL    HW116082   5.587   1.684   2.248
 5332SOL    HW216083   5.456   1.699   2.175
 5333SOL     OW16084   6.568   1.327   1.672
 5333SOL    HW116085   6.515   1.282   1.737
 5333SOL    HW216086   6.645   1.272   1.661
 5334SOL     OW16087   5.625   1.220   2.214
 5334SOL    HW116088   5.587   1.166   2.284
 5334SOL    HW216089   5.620   1.165   2.136
 5335SOL     OW16090   5.211   0.862   0.527
 5335SOL    HW116091   5.239   0.879   0.617
 5335SOL    HW216092   5.278   0.804   0.492
 5336SOL     OW16093   6.449   1.431   1.094
 5336SOL    HW116094   6.389   1.369   1.136
 5336SOL    HW216095   6.522   1.376   1.063
 5337SOL     OW16096   5.917   2.396   1.713
 5337SOL    HW116097   5.899   2.379   1.621
 5337SOL    HW216098   5.920   2.491   1.719
 5338SOL     OW16099   5.300   1.762   2.213
 5338SOL    HW116100   5.250   1.737   2.135
 5338SOL    HW216101   5.238   1.809   2.268
 5339SOL     OW16102   5.015   1.166   2.301
 5339SOL    HW116103   5.079   1.169   2.230
 5339SOL    HW216104   4.949   1.104   2.271
 5340SOL     OW16105   5.227   1.531   2.000
 5340SOL    HW116106   5.231   1.489   1.914
 5340SOL    HW216107   5.176   1.610   1.986
 5341SOL     OW16108   6.569   1.610   2.243
 5341SOL    HW116109   6.633   1.646   2.181
 5341SOL    HW216110   6.597   1.643   2.328
 5342SOL     OW16111   6.308   1.468   1.469
 5342SOL    HW116112   6.241   1.536   1.481
 5342SOL    HW216113   6.343   1.455   1.557
 5343SOL     OW16114   5.266   1.885   1.597
 5343SOL    HW116115   5.324   1.846   1.663
 5343SOL    HW216116   5.223   1.810   1.556
 5344SOL     OW16117   6.483   1.370   2.137
 5344SOL    HW116118   6.531   1.447   2.166
 5344SOL    HW216119   6.469   1.319   2.217
 5345SOL     OW16120   6.280   1.698   2.004
 5345SOL    HW116121   6.234   1.775   1.971
 5345SOL    HW216122   6.361   1.694   1.953
 5346SOL     OW16123   6.236   0.396   1.506
 5346SOL    HW116124   6.160   0.339   1.488
 5346SOL    HW216125   6.234   0.460   1.435
 5347SOL     OW16126   5.045   1.112   0.832
 5347SOL    HW116127   5.115   1.139   0.890
 5347SOL    HW216128   5.072   1.143   0.745
 5348SOL     OW16129   6.101   2.436   2.260
 5348SOL    HW116130   6.061   2.502   2.316
 5348SOL    HW216131   6.056   2.445   2.176
 5349SOL     OW16132   5.597   1.279   1.266
 5349SOL    HW116133   5.670   1.242   1.316
 5349SOL    HW216134   5.522   1.223   1.287
 5350SOL     OW16135   6.018   0.626   1.834
 5350SOL    HW116136   6.025   0.683   1.758
 5350SOL    HW216137   6.052   0.542   1.803
 5351SOL     OW16138   5.414   0.563   1.134
 5351SOL    HW116139   5.481   0.588   1.070
 5351SOL    HW216140   5.332   0.593   1.095
 5352SOL     OW16141   5.689   1.338   0.428
 5352SOL    HW116142   5.733   1.263   0.467
 5352SOL    HW216143   5.658   1.389   0.503
 5353SOL     OW16144   6.073   1.540   2.020
 5353SOL    HW116145   6.143   1.603   2.009
 5353SOL    HW216146   6.103   1.481   2.090
 5354SOL     OW16147   6.118   0.704   0.591
 5354SOL    HW116148   6.174   0.778   0.568
 5354SOL    HW216149   6.143   0.635   0.529
 5355SOL     OW16150   6.166   0.693   0.242
 5355SOL    HW116151   6.072   0.686   0.259
 5355SOL    HW216152   6.196   0.763   0.300
 5356SOL     OW16153   6.122   1.015   1.117
 5356SOL    HW116154   6.082   1.093   1.155
 5356SOL    HW216155   6.093   0.943   1.173
 5357SOL     OW16156   6.020   0.269   2.289
 5357SOL    HW116157   6.060   0.336   2.233
 5357SOL    HW216158   6.089   0.243   2.349
 5358SOL     OW16159   5.135   0.698   0.233
 5358SOL    HW116160   5.055   0.720   0.185
 5358SOL    HW216161   5.189   0.777   0.226
 5359SOL     OW16162   5.073   1.312   1.157
 5359SOL    HW116163   5.114   1.328   1.071
 5359SOL    HW216164   5.108   1.227   1.184
 5360SOL     OW16165   6.109   1.368   1.793
 5360SOL    HW116166   6.188   1.322   1.820
 5360SOL    HW216167   6.107   1.446   1.848
 5361SOL     OW16168   6.382   0.977   1.015
 5361SOL    HW116169   6.381   1.059   0.966
 5361SOL    HW216170   6.291   0.966   1.044
 5362SOL     OW16171   5.262   0.687   1.401
 5362SOL    HW116172   5.205   0.735   1.342
 5362SOL    HW216173   5.302   0.619   1.346
 5363SOL     OW16174   6.354   0.240   0.626
 5363SOL    HW116175   6.375   0.297   0.551
 5363SOL    HW216176   6.410   0.164   0.615
 5364SOL     OW16177   6.236   2.128   1.233
 5364SOL    HW116178   6.246   2.153   1.141
 5364SOL    HW216179   6.267   2.205   1.282
 5365SOL     OW16180   5.414   0.089   0.081
 5365SOL    HW116181   5.454   0.077  -0.006
 5365SOL    HW216182   5.488   0.106   0.139
 5366SOL     OW16183   6.055   1.311   2.260
 5366SOL    HW116184   5.968   1.350   2.250
 5366SOL    HW216185   6.056   1.237   2.200
 5367SOL     OW16186   5.201   1.651   1.064
 5367SOL    HW116187   5.252   1.572   1.083
 5367SOL    HW216188   5.203   1.658   0.968
 5368SOL     OW16189   6.264   0.888   0.424
 5368SOL    HW116190   6.355   0.910   0.407
 5368SOL    HW216191   6.214   0.962   0.389
 5369SOL     OW16192   6.045   0.796   1.322
 5369SOL    HW116193   5.996   0.816   1.402
 5369SOL    HW216194   6.137   0.808   1.347
 5370SOL     OW16195   5.928   2.451   2.040
 5370SOL    HW116196   5.978   2.453   1.959
 5370SOL    HW216197   5.858   2.388   2.022
 5371SOL     OW16198   5.280   0.314   0.995
 5371SOL    HW116199   5.220   0.385   1.018
 5371SOL    HW216200   5.328   0.347   0.919
 5372SOL     OW16201   5.251   0.404   1.306
 5372SOL    HW116202   5.271   0.415   1.213
 5372SOL    HW216203   5.336   0.393   1.348
 5373SOL     OW16204   5.629   2.457   0.639
 5373SOL    HW116205   5.721   2.475   0.623
 5373SOL    HW216206   5.599   2.411   0.560
 5374SOL     OW16207   6.393   0.721   2.268
 5374SOL    HW116208   6.321   0.719   2.205
 5374SOL    HW216209   6.356   0.683   2.348
 5375SOL     OW16210   5.120   2.005   1.837
 5375SOL    HW116211   5.051   2.055   1.793
 5375SOL    HW216212   5.151   1.943   1.771
 5376SOL     OW16213   6.172   1.083   0.241
 5376SOL    HW116214   6.251   1.138   0.248
 5376SOL    HW216215   6.111   1.135   0.189
 5377SOL     OW16216   6.628   1.531   0.231
 5377SOL    HW116217   6.637   1.469   0.159
 5377SOL    HW216218   6.554   1.587   0.206
 5378SOL     OW16219   5.020   0.011   1.002
 5378SOL    HW116220   5.026  -0.083   0.981
 5378SOL    HW216221   4.928   0.032   0.987
 5379SOL     OW16222   5.728   1.780   1.052
 5379SOL    HW116223   5.823   1.774   1.066
 5379SOL    HW216224   5.695   1.821   1.132
 5380SOL     OW16225   5.849   2.121   1.001
 5380SOL    HW116226   5.758   2.130   1.029
 5380SOL    HW216227   5.848   2.145   0.909
 5381SOL     OW16228   5.870   0.373   1.488
 5381SOL    HW116229   5.830   0.456   1.465
 5381SOL    HW216230   5.935   0.357   1.419
 5382SOL     OW16231   5.909   0.883   0.950
 5382SOL    HW116232   5.905   0.796   0.991
 5382SOL    HW216233   5.954   0.868   0.867
 5383SOL     OW16234   5.704   1.101   1.030
 5383SOL    HW116235   5.760   1.037   0.985
 5383SOL    HW216236   5.738   1.104   1.119
 5384SOL     OW16237   5.549   2.222   1.060
 5384SOL    HW116238   5.544   2.270   0.977
 5384SOL    HW216239   5.465   2.175   1.065
 5385SOL     OW16240   6.127   0.661   2.076
 5385SOL    HW116241   6.084   0.737   2.114
 5385SOL    HW216242   6.075   0.640   1.999
 5386SOL     OW16243   5.641   0.569   0.236
 5386SOL    HW116244   5.645   0.595   0.328
 5386SOL    HW216245   5.557   0.524   0.227
 5387SOL     OW16246   6.198   2.369   1.347
 5387SOL    HW116247   6.259   2.419   1.402
 5387SOL    HW216248   6.137   2.328   1.410
 5388SOL     OW16249   6.302   2.146   0.971
 5388SOL    HW116250   6.364   2.109   0.907
 5388SOL    HW216251   6.308   2.240   0.958
 5389SOL     OW16252   5.247   2.418   2.258
 5389SOL    HW116253   5.171   2.412   2.200
 5389SOL    HW216254   5.272   2.327   2.273
 5390SOL     OW16255   6.019   1.108   0.856
 5390SOL    HW116256   6.114   1.118   0.851
 5390SOL    HW216257   6.006   1.034   0.914
 5391SOL     OW16258   5.400   0.745   2.379
 5391SOL    HW116259   5.331   0.776   2.320
 5391SOL    HW216260   5.377   0.654   2.397
 5392SOL     OW16261   5.982   0.409   0.877
 5392SOL    HW116262   5.921   0.365   0.936
 5392SOL    HW216263   5.963   0.372   0.791
 5393SOL     OW16264   5.196   1.063   1.244
 5393SOL    HW116265   5.166   0.973   1.260
 5393SOL    HW216266   5.199   1.103   1.331
 5394SOL     OW16267   5.888   0.696   0.284
 5394SOL    HW116268   5.825   0.769   0.287
 5394SOL    HW216269   5.852   0.636   0.219
 5395SOL     OW16270   5.665   0.704   1.746
 5395SOL    HW116271   5.722   0.659   1.809
 5395SOL    HW216272   5.674   0.797   1.768
 5396SOL     OW16273   6.229   1.886   1.020
 5396SOL    HW116274   6.286   1.834   1.077
 5396SOL    HW216275   6.257   1.976   1.034
 5397SOL     OW16276   6.085   1.638   1.147
 5397SOL    HW116277   6.035   1.717   1.169
 5397SOL    HW216278   6.174   1.657   1.178
 5398SOL     OW16279   5.333   1.788   0.199
 5398SOL    HW116280   5.344   1.729   0.124
 5398SOL    HW216281   5.328   1.731   0.275
 5399SOL     OW16282   4.985   2.203   1.425
 5399SOL    HW116283   4.941   2.121   1.403
 5399SOL    HW216284   5.061   2.205   1.367
 5400SOL     OW16285   5.599   1.922   1.673
 5400SOL    HW116286   5.571   2.001   1.626
 5400SOL    HW216287   5.665   1.953   1.736
 5401SOL     OW16288   6.069   1.118   2.053
 5401SOL    HW116289   6.057   1.125   1.958
 5401SOL    HW216290   6.023   1.037   2.077
 5402SOL     OW16291   6.067   1.957   2.160
 5402SOL    HW116292   6.060   1.962   2.065
 5402SOL    HW216293   6.035   1.870   2.182
 5403SOL     OW16294   6.310   1.583   3.375
 5403SOL    HW116295   6.373   1.553   3.440
 5403SOL    HW216296   6.261   1.652   3.420
 5404SOL     OW16297   5.619   2.336   2.864
 5404SOL    HW116298   5.627   2.427   2.835
 5404SOL    HW216299   5.683   2.289   2.811
 5405SOL     OW16300   6.845   1.514   4.014
 5405SOL    HW116301   6.894   1.441   4.050
 5405SOL    HW216302   6.788   1.543   4.086
 5406SOL     OW16303   6.407   0.206   4.675
 5406SOL    HW116304   6.330   0.254   4.706
 5406SOL    HW216305   6.480   0.243   4.725
 5407SOL     OW16306   5.295   2.468   4.323
 5407SOL    HW116307   5.201   2.479   4.310
 5407SOL    HW216308   5.303   2.384   4.370
 5408SOL     OW16309   6.371   1.675   3.675
 5408SOL    HW116310   6.418   1.687   3.758
 5408SOL    HW216311   6.385   1.583   3.653
 5409SOL     OW16312   6.734   2.124   3.097
 5409SOL    HW116313   6.777   2.209   3.099
 5409SOL    HW216314   6.805   2.061   3.110
 5410SOL     OW16315   5.361   0.934   3.264
 5410SOL    HW116316   5.429   0.985   3.221
 5410SOL    HW216317   5.352   0.976   3.350
 5411SOL     OW16318   5.585   1.975   2.639
 5411SOL    HW116319   5.493   1.994   2.658
 5411SOL    HW216320   5.584   1.884   2.610
 5412SOL     OW16321   5.677   1.503   3.159
 5412SOL    HW116322   5.647   1.540   3.242
 5412SOL    HW216323   5.772   1.498   3.168
 5413SOL     OW16324   5.453   1.755   3.896
 5413SOL    HW116325   5.375   1.729   3.847
 5413SOL    HW216326   5.419   1.801   3.973
 5414SOL     OW16327   5.538   0.727   3.265
 5414SOL    HW116328   5.591   0.744   3.343
 5414SOL    HW216329   5.479   0.802   3.260
 5415SOL     OW16330   5.904   2.433   3.922
 5415SOL    HW116331   5.921   2.371   3.851
 5415SOL    HW216332   5.832   2.488   3.890
 5416SOL     OW16333   5.088   1.833   2.944
 5416SOL    HW116334   5.024   1.769   2.913
 5416SOL    HW216335   5.172   1.790   2.931
 5417SOL     OW16336   6.114   2.142   3.228
 5417SOL    HW116337   6.084   2.215   3.281
 5417SOL    HW216338   6.169   2.090   3.288
 5418SOL     OW16339   5.108   1.400   3.220
 5418SOL    HW116340   5.047   1.440   3.283
 5418SOL    HW216341   5.051   1.353   3.159
 5419SOL     OW16342   5.955   1.838   2.508
 5419SOL    HW116343   5.976   1.766   2.568
 5419SOL    HW216344   5.939   1.795   2.424
 5420SOL     OW16345   6.236   2.367   4.365
 5420SOL    HW116346   6.174   2.304   4.328
 5420SOL    HW216347   6.301   2.314   4.411
 5421SOL     OW16348   5.852   1.008   4.367
 5421SOL    HW116349   5.793   0.979   4.436
 5421SOL    HW216350   5.839   1.103   4.361
 5422SOL     OW16351   5.322   0.135   4.562
 5422SOL    HW116352   5.318   0.078   4.639
 5422SOL    HW216353   5.340   0.076   4.489
 5423SOL     OW16354   6.265   1.519   4.736
 5423SOL    HW116355   6.301   1.430   4.727
 5423SOL    HW216356   6.317   1.572   4.676
 5424SOL     OW16357   6.195   2.270   2.824
 5424SOL    HW116358   6.158   2.356   2.842
 5424SOL    HW216359   6.168   2.250   2.734
 5425SOL     OW16360   5.799   0.446   2.986
 5425SOL    HW116361   5.837   0.454   2.899
 5425SOL    HW216362   5.755   0.529   3.001
 5426SOL     OW16363   5.410   1.450   3.069
 5426SOL    HW116364   5.488   1.464   3.122
 5426SOL    HW216365   5.381   1.361   3.091
 5427SOL     OW16366   5.240   1.158   3.050
 5427SOL    HW116367   5.154   1.186   3.018
 5427SOL    HW216368   5.251   1.069   3.016
 5428SOL     OW16369   5.831   1.911   2.833
 5428SOL    HW116370   5.897   1.871   2.777
 5428SOL    HW216371   5.881   1.964   2.896
 5429SOL     OW16372   5.339   2.325   2.773
 5429SOL    HW116373   5.421   2.276   2.778
 5429SOL    HW216374   5.322   2.332   2.679
 5430SOL     OW16375   5.037   0.489   4.279
 5430SOL    HW116376   5.053   0.462   4.189
 5430SOL    HW216377   4.952   0.451   4.301
 5431SOL     OW16378   6.251   1.443   3.014
 5431SOL    HW116379   6.209   1.440   3.100
 5431SOL    HW216380   6.313   1.516   3.020
 5432SOL     OW16381   5.611   1.596   2.698
 5432SOL    HW116382   5.584   1.632   2.783
 5432SOL    HW216383   5.706   1.600   2.699
 5433SOL     OW16384   6.049   0.106   3.645
 5433SOL    HW116385   6.133   0.118   3.601
 5433SOL    HW216386   6.062   0.033   3.704
 5434SOL     OW16387   5.006   1.998   3.119
 5434SOL    HW116388   5.036   1.951   3.042
 5434SOL    HW216389   5.081   1.997   3.179
 5435SOL     OW16390   5.909   2.428   3.066
 5435SOL    HW116391   5.935   2.444   2.975
 5435SOL    HW216392   5.989   2.441   3.116
 5436SOL     OW16393   6.181   1.453   2.509
 5436SOL    HW116394   6.153   1.369   2.473
 5436SOL    HW216395   6.218   1.500   2.435
 5437SOL     OW16396   5.527   0.493   4.134
 5437SOL    HW116397   5.541   0.582   4.168
 5437SOL    HW216398   5.571   0.436   4.197
 5438SOL     OW16399   6.256   0.299   3.375
 5438SOL    HW116400   6.274   0.275   3.284
 5438SOL    HW216401   6.181   0.358   3.370
 5439SOL     OW16402   5.388   1.828   4.328
 5439SOL    HW116403   5.475   1.838   4.290
 5439SOL    HW216404   5.400   1.764   4.398
 5440SOL     OW16405   5.220   0.249   4.236
 5440SOL    HW116406   5.245   0.242   4.329
 5440SOL    HW216407   5.228   0.342   4.216
 5441SOL     OW16408   5.530   1.505   4.040
 5441SOL    HW116409   5.499   1.576   3.985
 5441SOL    HW216410   5.597   1.544   4.095
 5442SOL     OW16411   5.623   0.336   4.341
 5442SOL    HW116412   5.580   0.335   4.427
 5442SOL    HW216413   5.620   0.245   4.312
 5443SOL     OW16414   5.346   1.125   4.406
 5443SOL    HW116415   5.288   1.090   4.338
 5443SOL    HW216416   5.415   1.059   4.414
 5444SOL     OW16417   6.034   1.789   4.133
 5444SOL    HW116418   6.055   1.839   4.054
 5444SOL    HW216419   6.032   1.698   4.104
 5445SOL     OW16420   5.462   0.277   3.974
 5445SOL    HW116421   5.483   0.219   4.046
 5445SOL    HW216422   5.484   0.365   4.006
 5446SOL     OW16423   5.823   1.939   4.333
 5446SOL    HW116424   5.816   1.861   4.388
 5446SOL    HW216425   5.855   1.907   4.249
 5447SOL     OW16426   6.392   2.466   3.995
 5447SOL    HW116427   6.383   2.546   4.047
 5447SOL    HW216428   6.371   2.395   4.056
 5448SOL     OW16429   5.717   0.603   3.921
 5448SOL    HW116430   5.698   0.682   3.871
 5448SOL    HW216431   5.643   0.595   3.983
 5449SOL     OW16432   5.814   2.243   3.251
 5449SOL    HW116433   5.851   2.269   3.166
 5449SOL    HW216434   5.725   2.277   3.250
 5450SOL     OW16435   5.603   0.257   3.007
 5450SOL    HW116436   5.680   0.312   3.016
 5450SOL    HW216437   5.585   0.226   3.095
 5451SOL     OW16438   6.036   2.484   2.823
 5451SOL    HW116439   6.086   2.565   2.824
 5451SOL    HW216440   5.996   2.482   2.736
 5452SOL     OW16441   6.372   1.258   4.388
 5452SOL    HW116442   6.409   1.307   4.461
 5452SOL    HW216443   6.389   1.166   4.410
 5453SOL     OW16444   6.306   0.076   2.674
 5453SOL    HW116445   6.338   0.082   2.763
 5453SOL    HW216446   6.363   0.011   2.632
 5454SOL     OW16447   5.583   1.018   4.247
 5454SOL    HW116448   5.645   1.065   4.191
 5454SOL    HW216449   5.498   1.031   4.204
 5455SOL     OW16450   6.595   1.249   2.850
 5455SOL    HW116451   6.512   1.292   2.830
 5455SOL    HW216452   6.658   1.289   2.790
 5456SOL     OW16453   5.400   0.555   4.430
 5456SOL    HW116454   5.402   0.536   4.336
 5456SOL    HW216455   5.430   0.474   4.472
 5457SOL     OW16456   6.085   1.109   3.947
 5457SOL    HW116457   6.164   1.161   3.962
 5457SOL    HW216458   6.107   1.022   3.980
 5458SOL     OW16459   5.876   1.505   2.519
 5458SOL    HW116460   5.916   1.426   2.556
 5458SOL    HW216461   5.933   1.527   2.445
 5459SOL     OW16462   5.588   0.360   3.624
 5459SOL    HW116463   5.550   0.272   3.622
 5459SOL    HW216464   5.515   0.417   3.647
 5460SOL     OW16465   5.152   2.202   3.684
 5460SOL    HW116466   5.086   2.225   3.619
 5460SOL    HW216467   5.209   2.139   3.641
 5461SOL     OW16468   5.485   0.473   3.215
 5461SOL    HW116469   5.561   0.415   3.213
 5461SOL    HW216470   5.513   0.547   3.268
 5462SOL     OW16471   6.012   1.167   2.508
 5462SOL    HW116472   6.023   1.157   2.413
 5462SOL    HW216473   5.920   1.146   2.524
 5463SOL     OW16474   6.730   0.248   2.639
 5463SOL    HW116475   6.794   0.270   2.707
 5463SOL    HW216476   6.753   0.160   2.611
 5464SOL     OW16477   5.575   2.292   3.830
 5464SOL    HW116478   5.601   2.279   3.738
 5464SOL    HW216479   5.487   2.330   3.824
 5465SOL     OW16480   6.148   0.613   3.343
 5465SOL    HW116481   6.126   0.646   3.256
 5465SOL    HW216482   6.093   0.535   3.354
 5466SOL     OW16483   5.313   1.590   2.507
 5466SOL    HW116484   5.222   1.611   2.485
 5466SOL    HW216485   5.351   1.559   2.425
 5467SOL     OW16486   6.293   0.907   3.888
 5467SOL    HW116487   6.340   0.836   3.932
 5467SOL    HW216488   6.342   0.986   3.912
 5468SOL     OW16489   5.062   1.401   3.944
 5468SOL    HW116490   4.996   1.380   4.010
 5468SOL    HW216491   5.037   1.488   3.912
 5469SOL     OW16492   5.026   2.225   2.891
 5469SOL    HW116493   5.121   2.234   2.894
 5469SOL    HW216494   5.004   2.178   2.972
 5470SOL     OW16495   5.283   0.719   4.173
 5470SOL    HW116496   5.190   0.702   4.160
 5470SOL    HW216497   5.323   0.700   4.088
 5471SOL     OW16498   4.990   0.590   2.918
 5471SOL    HW116499   5.037   0.518   2.960
 5471SOL    HW216500   5.052   0.625   2.854
 5472SOL     OW16501   5.027   0.885   3.474
 5472SOL    HW116502   4.949   0.836   3.447
 5472SOL    HW216503   5.021   0.967   3.425
 5473SOL     OW16504   5.479   1.020   2.845
 5473SOL    HW116505   5.436   1.103   2.823
 5473SOL    HW216506   5.424   0.953   2.804
 5474SOL     OW16507   6.024   0.879   4.180
 5474SOL    HW116508   6.104   0.932   4.186
 5474SOL    HW216509   5.962   0.923   4.237
 5475SOL     OW16510   5.315   0.986   4.150
 5475SOL    HW116511   5.242   1.033   4.111
 5475SOL    HW216512   5.321   0.905   4.100
 5476SOL     OW16513   5.126   0.098   3.887
 5476SOL    HW116514   5.139   0.093   3.792
 5476SOL    HW216515   5.202   0.146   3.919
 5477SOL     OW16516   5.025   2.397   4.603
 5477SOL    HW116517   4.979   2.333   4.658
 5477SOL    HW216518   4.999   2.376   4.514
 5478SOL     OW16519   5.950   1.314   4.081
 5478SOL    HW116520   6.007   1.350   4.148
 5478SOL    HW216521   5.991   1.232   4.055
 5479SOL     OW16522   5.821   0.239   3.502
 5479SOL    HW116523   5.878   0.200   3.568
 5479SOL    HW216524   5.741   0.262   3.550
 5480SOL     OW16525   6.453   2.357   2.509
 5480SOL    HW116526   6.431   2.365   2.416
 5480SOL    HW216527   6.372   2.329   2.551
 5481SOL     OW16528   5.669   0.681   3.508
 5481SOL    HW116529   5.726   0.605   3.495
 5481SOL    HW216530   5.695   0.717   3.593
 5482SOL     OW16531   5.049   1.217   2.559
 5482SOL    HW116532   5.026   1.204   2.467
 5482SOL    HW216533   5.137   1.254   2.557
 5483SOL     OW16534   4.991   0.182   4.544
 5483SOL    HW116535   5.005   0.094   4.580
 5483SOL    HW216536   4.979   0.168   4.450
 5484SOL     OW16537   5.748   1.676   4.116
 5484SOL    HW116538   5.812   1.671   4.187
 5484SOL    HW216539   5.705   1.761   4.128
 5485SOL     OW16540   5.640   0.699   3.008
 5485SOL    HW116541   5.690   0.780   3.012
 5485SOL    HW216542   5.619   0.679   3.099
 5486SOL     OW16543   5.101   0.003   2.768
 5486SOL    HW116544   5.098   0.010   2.672
 5486SOL    HW216545   5.189  -0.032   2.786
 5487SOL     OW16546   5.241   0.729   3.463
 5487SOL    HW116547   5.168   0.791   3.469
 5487SOL    HW216548   5.295   0.762   3.391
 5488SOL     OW16549   6.090   0.335   2.876
 5488SOL    HW116550   6.166   0.339   2.819
 5488SOL    HW216551   6.015   0.332   2.816
 5489SOL     OW16552   5.340   2.045   3.592
 5489SOL    HW116553   5.389   1.972   3.553
 5489SOL    HW216554   5.346   2.029   3.686
 5490SOL     OW16555   5.076   1.118   3.973
 5490SOL    HW116556   5.082   1.210   3.947
 5490SOL    HW216557   4.983   1.099   3.973
 5491SOL     OW16558   5.800   2.147   4.797
 5491SOL    HW116559   5.863   2.083   4.831
 5491SOL    HW216560   5.815   2.147   4.702
 5492SOL     OW16561   5.645   1.942   3.742
 5492SOL    HW116562   5.568   1.893   3.771
 5492SOL    HW216563   5.647   2.019   3.799
 5493SOL     OW16564   5.094   0.471   3.549
 5493SOL    HW116565   5.065   0.513   3.469
 5493SOL    HW216566   5.015   0.458   3.600
 5494SOL     OW16567   5.053   2.216   3.421
 5494SOL    HW116568   4.981   2.169   3.379
 5494SOL    HW216569   5.132   2.187   3.375
 5495SOL     OW16570   6.455   1.102   3.748
 5495SOL    HW116571   6.432   1.022   3.702
 5495SOL    HW216572   6.373   1.152   3.751
 5496SOL     OW16573   5.422   1.290   2.827
 5496SOL    HW116574   5.513   1.295   2.855
 5496SOL    HW216575   5.382   1.370   2.863
 5497SOL     OW16576   6.045   2.170   4.269
 5497SOL    HW116577   6.002   2.256   4.270
 5497SOL    HW216578   5.976   2.109   4.293
 5498SOL     OW16579   6.386   0.581   4.335
 5498SOL    HW116580   6.337   0.506   4.302
 5498SOL    HW216581   6.338   0.610   4.412
 5499SOL     OW16582   6.778   0.733   3.263
 5499SOL    HW116583   6.721   0.748   3.339
 5499SOL    HW216584   6.744   0.653   3.224
 5500SOL     OW16585   5.016   0.111   4.136
 5500SOL    HW116586   5.088   0.169   4.158
 5500SOL    HW216587   5.032   0.086   4.045
 5501SOL     OW16588   5.904   0.630   3.640
 5501SOL    HW116589   5.905   0.688   3.716
 5501SOL    HW216590   5.990   0.587   3.642
 5502SOL     OW16591   5.601   2.464   4.048
 5502SOL    HW116592   5.632   2.522   3.979
 5502SOL    HW216593   5.601   2.377   4.008
 5503SOL     OW16594   6.280   1.239   3.381
 5503SOL    HW116595   6.372   1.254   3.358
 5503SOL    HW216596   6.231   1.276   3.307
 5504SOL     OW16597   6.262   1.765   2.931
 5504SOL    HW116598   6.280   1.852   2.897
 5504SOL    HW216599   6.180   1.739   2.889
 5505SOL     OW16600   5.215   1.356   4.248
 5505SOL    HW116601   5.181   1.269   4.268
 5505SOL    HW216602   5.158   1.388   4.178
 5506SOL     OW16603   6.021   1.552   3.961
 5506SOL    HW116604   5.983   1.464   3.952
 5506SOL    HW216605   5.960   1.609   3.914
 5507SOL     OW16606   6.438   1.695   3.118
 5507SOL    HW116607   6.387   1.718   3.040
 5507SOL    HW216608   6.372   1.665   3.180
 5508SOL     OW16609   5.613   1.766   2.930
 5508SOL    HW116610   5.678   1.824   2.890
 5508SOL    HW216611   5.633   1.768   3.024
 5509SOL     OW16612   5.577   1.066   3.117
 5509SOL    HW116613   5.550   1.051   3.027
 5509SOL    HW216614   5.672   1.055   3.116
 5510SOL     OW16615   5.755   2.204   4.516
 5510SOL    HW116616   5.743   2.120   4.472
 5510SOL    HW216617   5.671   2.222   4.557
 5511SOL     OW16618   6.111   2.271   2.581
 5511SOL    HW116619   6.119   2.192   2.528
 5511SOL    HW216620   6.052   2.328   2.531
 5512SOL     OW16621   5.391   0.703   2.921
 5512SOL    HW116622   5.473   0.700   2.972
 5512SOL    HW216623   5.419   0.724   2.832
 5513SOL     OW16624   5.964   2.118   2.958
 5513SOL    HW116625   5.994   2.106   3.048
 5513SOL    HW216626   6.018   2.190   2.925
 5514SOL     OW16627   5.656   0.100   2.782
 5514SOL    HW116628   5.699   0.135   2.705
 5514SOL    HW216629   5.645   0.175   2.840
 5515SOL     OW16630   5.654   1.547   4.440
 5515SOL    HW116631   5.607   1.464   4.431
 5515SOL    HW216632   5.610   1.592   4.512
 5516SOL     OW16633   4.990   0.553   3.310
 5516SOL    HW116634   5.020   0.625   3.255
 5516SOL    HW216635   5.005   0.474   3.257
 5517SOL     OW16636   6.364   1.727   4.200
 5517SOL    HW116637   6.378   1.814   4.239
 5517SOL    HW216638   6.311   1.745   4.122
 5518SOL     OW16639   5.103   0.489   4.038
 5518SOL    HW116640   5.164   0.544   3.990
 5518SOL    HW216641   5.071   0.425   3.974
 5519SOL     OW16642   5.599   1.609   3.389
 5519SOL    HW116643   5.663   1.664   3.434
 5519SOL    HW216644   5.580   1.538   3.451
 5520SOL     OW16645   6.377   0.568   3.790
 5520SOL    HW116646   6.459   0.567   3.740
 5520SOL    HW216647   6.308   0.557   3.724
 5521SOL     OW16648   6.081   1.648   2.684
 5521SOL    HW116649   6.109   1.572   2.634
 5521SOL    HW216650   6.021   1.613   2.750
 5522SOL     OW16651   5.179   1.241   4.603
 5522SOL    HW116652   5.233   1.308   4.645
 5522SOL    HW216653   5.219   1.230   4.516
 5523SOL     OW16654   5.705   0.147   3.819
 5523SOL    HW116655   5.691   0.235   3.854
 5523SOL    HW216656   5.634   0.134   3.756
 5524SOL     OW16657   6.387   0.391   2.850
 5524SOL    HW116658   6.411   0.471   2.895
 5524SOL    HW216659   6.452   0.382   2.780
 5525SOL     OW16660   5.024   2.392   4.317
 5525SOL    HW116661   4.997   2.457   4.252
 5525SOL    HW216662   4.984   2.310   4.288
 5526SOL     OW16663   6.348   1.174   4.043
 5526SOL    HW116664   6.419   1.113   4.063
 5526SOL    HW216665   6.391   1.248   4.001
 5527SOL     OW16666   5.655   1.897   3.231
 5527SOL    HW116667   5.750   1.891   3.227
 5527SOL    HW216668   5.632   1.963   3.166
 5528SOL     OW16669   6.366   2.389   3.357
 5528SOL    HW116670   6.274   2.414   3.360
 5528SOL    HW216671   6.395   2.415   3.270
 5529SOL     OW16672   5.528   2.397   4.529
 5529SOL    HW116673   5.546   2.444   4.447
 5529SOL    HW216674   5.451   2.344   4.511
 5530SOL     OW16675   4.992   1.832   3.612
 5530SOL    HW116676   4.957   1.862   3.528
 5530SOL    HW216677   5.061   1.771   3.589
 5531SOL     OW16678   6.448   1.962   3.759
 5531SOL    HW116679   6.510   2.031   3.782
 5531SOL    HW216680   6.363   2.005   3.760
 5532SOL     OW16681   5.704   0.230   2.535
 5532SOL    HW116682   5.626   0.284   2.520
 5532SOL    HW216683   5.735   0.208   2.447
 5533SOL     OW16684   5.323   2.375   3.811
 5533SOL    HW116685   5.306   2.460   3.771
 5533SOL    HW216686   5.272   2.313   3.759
 5534SOL     OW16687   6.067   0.342   3.776
 5534SOL    HW116688   6.050   0.258   3.733
 5534SOL    HW216689   6.111   0.395   3.710
 5535SOL     OW16690   5.387   0.825   4.434
 5535SOL    HW116691   5.401   0.731   4.437
 5535SOL    HW216692   5.354   0.841   4.345
 5536SOL     OW16693   5.234   1.304   3.426
 5536SOL    HW116694   5.325   1.275   3.421
 5536SOL    HW216695   5.216   1.342   3.339
 5537SOL     OW16696   6.006   0.309   3.132
 5537SOL    HW116697   6.069   0.325   3.062
 5537SOL    HW216698   5.922   0.337   3.097
 5538SOL     OW16699   6.339   2.159   4.534
 5538SOL    HW116700   6.265   2.159   4.595
 5538SOL    HW216701   6.415   2.139   4.588
 5539SOL     OW16702   6.114   1.908   4.368
 5539SOL    HW116703   6.202   1.933   4.341
 5539SOL    HW216704   6.080   1.857   4.294
 5540SOL     OW16705   6.619   1.604   4.161
 5540SOL    HW116706   6.543   1.657   4.138
 5540SOL    HW216707   6.584   1.516   4.173
 5541SOL     OW16708   5.303   2.018   3.856
 5541SOL    HW116709   5.282   1.964   3.933
 5541SOL    HW216710   5.264   2.103   3.876
 5542SOL     OW16711   5.030   1.668   2.498
 5542SOL    HW116712   5.069   1.751   2.471
 5542SOL    HW216713   4.936   1.681   2.488
 5543SOL     OW16714   5.642   0.225   3.270
 5543SOL    HW116715   5.614   0.133   3.274
 5543SOL    HW216716   5.705   0.234   3.342
 5544SOL     OW16717   5.620   1.345   2.535
 5544SOL    HW116718   5.595   1.414   2.597
 5544SOL    HW216719   5.607   1.385   2.449
 5545SOL     OW16720   5.072   1.129   4.296
 5545SOL    HW116721   4.999   1.091   4.344
 5545SOL    HW216722   5.086   1.068   4.223
 5546SOL     OW16723   5.461   2.402   3.338
 5546SOL    HW116724   5.516   2.402   3.259
 5546SOL    HW216725   5.381   2.447   3.311
 5547SOL     OW16726   5.826   1.117   3.044
 5547SOL    HW116727   5.869   1.039   3.010
 5547SOL    HW216728   5.892   1.158   3.101
 5548SOL     OW16729   5.460   1.870   3.430
 5548SOL    HW116730   5.511   1.896   3.353
 5548SOL    HW216731   5.514   1.802   3.471
 5549SOL     OW16732   5.207   1.961   3.304
 5549SOL    HW116733   5.269   1.969   3.377
 5549SOL    HW216734   5.193   1.867   3.294
 5550SOL     OW16735   5.666   1.261   4.061
 5550SOL    HW116736   5.623   1.347   4.068
 5550SOL    HW216737   5.759   1.282   4.051
 5551SOL     OW16738   6.120   1.450   3.245
 5551SOL    HW116739   6.039   1.461   3.296
 5551SOL    HW216740   6.189   1.481   3.304
 5552SOL     OW16741   6.216   0.498   3.588
 5552SOL    HW116742   6.219   0.412   3.545
 5552SOL    HW216743   6.215   0.561   3.515
 5553SOL     OW16744   5.603   2.093   3.045
 5553SOL    HW116745   5.677   2.142   3.009
 5553SOL    HW216746   5.532   2.156   3.050
 5554SOL     OW16747   5.493   1.348   4.355
 5554SOL    HW116748   5.416   1.390   4.317
 5554SOL    HW216749   5.462   1.260   4.379
 5555SOL     OW16750   5.008   0.768   4.051
 5555SOL    HW116751   4.925   0.730   4.022
 5555SOL    HW216752   5.038   0.820   3.976
 5556SOL     OW16753   6.128   0.062   3.162
 5556SOL    HW116754   6.084   0.147   3.160
 5556SOL    HW216755   6.216   0.080   3.127
 5557SOL     OW16756   5.164   0.014   2.501
 5557SOL    HW116757   5.241   0.065   2.526
 5557SOL    HW216758   5.181  -0.011   2.410
 5558SOL     OW16759   6.282   1.856   3.971
 5558SOL    HW116760   6.227   1.932   3.951
 5558SOL    HW216761   6.368   1.878   3.936
 5559SOL     OW16762   6.852   1.195   2.739
 5559SOL    HW116763   6.888   1.153   2.660
 5559SOL    HW216764   6.782   1.136   2.767
 5560SOL     OW16765   5.867   1.664   4.360
 5560SOL    HW116766   5.779   1.628   4.375
 5560SOL    HW216767   5.923   1.615   4.420
 5561SOL     OW16768   5.958   1.262   3.575
 5561SOL    HW116769   6.010   1.249   3.496
 5561SOL    HW216770   5.882   1.311   3.545
 5562SOL     OW16771   5.070   0.809   3.757
 5562SOL    HW116772   5.076   0.842   3.668
 5562SOL    HW216773   4.979   0.781   3.766
 5563SOL     OW16774   6.346   2.003   4.318
 5563SOL    HW116775   6.334   2.052   4.399
 5563SOL    HW216776   6.405   2.057   4.265
 5564SOL     OW16777   5.359   2.065   2.928
 5564SOL    HW116778   5.450   2.042   2.946
 5564SOL    HW216779   5.309   1.988   2.956
 5565SOL     OW16780   5.813   1.691   3.845
 5565SOL    HW116781   5.738   1.726   3.797
 5565SOL    HW216782   5.779   1.674   3.933
 5566SOL     OW16783   6.183   2.119   4.024
 5566SOL    HW116784   6.134   2.116   3.942
 5566SOL    HW216785   6.116   2.116   4.093
 5567SOL     OW16786   6.660   0.965   3.111
 5567SOL    HW116787   6.718   1.040   3.125
 5567SOL    HW216788   6.694   0.897   3.168
 5568SOL     OW16789   6.260   1.292   3.768
 5568SOL    HW116790   6.257   1.367   3.828
 5568SOL    HW216791   6.173   1.291   3.727
 5569SOL     OW16792   5.423   1.033   3.506
 5569SOL    HW116793   5.489   0.998   3.566
 5569SOL    HW216794   5.369   1.091   3.561
 5570SOL     OW16795   5.335   1.414   4.717
 5570SOL    HW116796   5.427   1.409   4.694
 5570SOL    HW216797   5.301   1.487   4.664
 5571SOL     OW16798   5.779   2.165   2.709
 5571SOL    HW116799   5.718   2.095   2.684
 5571SOL    HW216800   5.833   2.127   2.778
 5572SOL     OW16801   5.190   1.703   3.835
 5572SOL    HW116802   5.195   1.710   3.740
 5572SOL    HW216803   5.097   1.687   3.852
 5573SOL     OW16804   5.616   1.045   3.913
 5573SOL    HW116805   5.692   1.100   3.897
 5573SOL    HW216806   5.567   1.091   3.981
 5574SOL     OW16807   6.197   0.119   4.251
 5574SOL    HW116808   6.111   0.128   4.209
 5574SOL    HW216809   6.194   0.033   4.292
 5575SOL     OW16810   5.709   2.107   3.963
 5575SOL    HW116811   5.800   2.081   3.945
 5575SOL    HW216812   5.701   2.194   3.925
 5576SOL     OW16813   6.321   1.335   2.762
 5576SOL    HW116814   6.265   1.388   2.705
 5576SOL    HW216815   6.293   1.358   2.850
 5577SOL     OW16816   5.341   1.309   3.896
 5577SOL    HW116817   5.392   1.349   3.967
 5577SOL    HW216818   5.256   1.353   3.901
 5578SOL     OW16819   5.908   1.912   3.256
 5578SOL    HW116820   5.987   1.966   3.263
 5578SOL    HW216821   5.887   1.887   3.346
 5579SOL     OW16822   5.896   1.549   2.850
 5579SOL    HW116823   5.824   1.494   2.880
 5579SOL    HW216824   5.932   1.587   2.931
 5580SOL     OW16825   5.719   0.921   2.785
 5580SOL    HW116826   5.631   0.952   2.803
 5580SOL    HW216827   5.751   0.978   2.715
 5581SOL     OW16828   6.310   2.033   2.915
 5581SOL    HW116829   6.298   2.121   2.880
 5581SOL    HW216830   6.290   2.041   3.008
 5582SOL     OW16831   6.084   2.379   3.375
 5582SOL    HW116832   5.993   2.408   3.375
 5582SOL    HW216833   6.124   2.425   3.301
 5583SOL     OW16834   5.043   2.430   3.101
 5583SOL    HW116835   4.968   2.388   3.142
 5583SOL    HW216836   5.040   2.403   3.010
 5584SOL     OW16837   5.221   0.038   3.295
 5584SOL    HW116838   5.159   0.052   3.367
 5584SOL    HW216839   5.169  -0.005   3.227
 5585SOL     OW16840   6.208   0.400   4.275
 5585SOL    HW116841   6.174   0.418   4.187
 5585SOL    HW216842   6.233   0.308   4.273
 5586SOL     OW16843   5.474   1.235   3.321
 5586SOL    HW116844   5.486   1.177   3.247
 5586SOL    HW216845   5.536   1.203   3.387
 5587SOL     OW16846   6.394   1.661   2.653
 5587SOL    HW116847   6.323   1.599   2.638
 5587SOL    HW216848   6.376   1.698   2.739
 5588SOL     OW16849   5.562   0.075   4.289
 5588SOL    HW116850   5.600   0.043   4.207
 5588SOL    HW216851   5.468   0.072   4.274
 5589SOL     OW16852   5.958   2.285   3.703
 5589SOL    HW116853   5.919   2.237   3.630
 5589SOL    HW216854   6.046   2.305   3.673
 5590SOL     OW16855   5.103   0.615   4.510
 5590SOL    HW116856   5.096   0.587   4.418
 5590SOL    HW216857   5.191   0.653   4.517
 5591SOL     OW16858   6.521   0.980   2.868
 5591SOL    HW116859   6.541   1.073   2.858
 5591SOL    HW216860   6.574   0.952   2.942
 5592SOL     OW16861   5.249   0.095   3.624
 5592SOL    HW116862   5.270   0.167   3.564
 5592SOL    HW216863   5.172   0.053   3.584
 5593SOL     OW16864   5.228   0.547   3.091
 5593SOL    HW116865   5.292   0.529   3.160
 5593SOL    HW216866   5.265   0.622   3.043
 5594SOL     OW16867   5.376   0.847   2.683
 5594SOL    HW116868   5.428   0.804   2.615
 5594SOL    HW216869   5.303   0.886   2.635
 5595SOL     OW16870   6.247   1.009   4.227
 5595SOL    HW116871   6.333   0.980   4.258
 5595SOL    HW216872   6.267   1.071   4.157
 5596SOL     OW16873   5.983   1.661   3.083
 5596SOL    HW116874   5.938   1.742   3.108
 5596SOL    HW216875   6.053   1.652   3.147
 5597SOL     OW16876   5.965   1.908   3.608
 5597SOL    HW116877   5.915   1.985   3.581
 5597SOL    HW216878   6.054   1.926   3.577
 5598SOL     OW16879   5.939   1.936   3.892
 5598SOL    HW116880   5.892   1.855   3.913
 5598SOL    HW216881   5.960   1.928   3.799
 5599SOL     OW16882   5.386   1.462   3.660
 5599SOL    HW116883   5.333   1.392   3.699
 5599SOL    HW216884   5.467   1.462   3.711
 5600SOL     OW16885   5.714   1.367   3.518
 5600SOL    HW116886   5.650   1.358   3.589
 5600SOL    HW216887   5.699   1.290   3.463
 5601SOL     OW16888   5.298   1.308   2.574
 5601SOL    HW116889   5.359   1.283   2.644
 5601SOL    HW216890   5.309   1.403   2.566
 5602SOL     OW16891   5.382   0.327   2.839
 5602SOL    HW116892   5.388   0.237   2.809
 5602SOL    HW216893   5.458   0.337   2.897
 5603SOL     OW16894   5.530   0.078   3.579
 5603SOL    HW116895   5.460   0.043   3.635
 5603SOL    HW216896   5.513   0.039   3.493
 5604SOL     OW16897   5.835   1.286   4.343
 5604SOL    HW116898   5.776   1.355   4.313
 5604SOL    HW216899   5.923   1.321   4.325
 5605SOL     OW16900   5.497   0.336   4.575
 5605SOL    HW116901   5.443   0.257   4.573
 5605SOL    HW216902   5.565   0.317   4.640
 5606SOL     OW16903   5.870   0.865   2.999
 5606SOL    HW116904   5.837   0.879   2.910
 5606SOL    HW216905   5.936   0.797   2.989
 5607SOL     OW16906   5.624   0.824   3.789
 5607SOL    HW116907   5.535   0.804   3.759
 5607SOL    HW216908   5.614   0.904   3.840
 5608SOL     OW16909   5.361   1.697   2.951
 5608SOL    HW116910   5.451   1.729   2.946
 5608SOL    HW216911   5.361   1.636   3.025
 5609SOL     OW16912   5.851   1.160   3.795
 5609SOL    HW116913   5.928   1.148   3.849
 5609SOL    HW216914   5.882   1.209   3.719
 5610SOL     OW16915   5.885   0.206   4.200
 5610SOL    HW116916   5.832   0.253   4.264
 5610SOL    HW216917   5.872   0.255   4.119
 5611SOL     OW16918   5.912   1.528   3.423
 5611SOL    HW116919   5.827   1.511   3.463
 5611SOL    HW216920   5.967   1.559   3.495
 5612SOL     OW16921   6.376   2.384   3.036
 5612SOL    HW116922   6.445   2.389   2.970
 5612SOL    HW216923   6.327   2.305   3.013
 5613SOL     OW16924   5.309   2.062   2.640
 5613SOL    HW116925   5.287   1.969   2.645
 5613SOL    HW216926   5.300   2.093   2.731
 5614SOL     OW16927   5.266   1.683   3.295
 5614SOL    HW116928   5.264   1.604   3.240
 5614SOL    HW216929   5.358   1.697   3.315
 5615SOL     OW16930   5.149   0.286   3.062
 5615SOL    HW116931   5.205   0.363   3.070
 5615SOL    HW216932   5.210   0.213   3.055
 5616SOL     OW16933   5.545   1.667   4.651
 5616SOL    HW116934   5.587   1.684   4.735
 5616SOL    HW216935   5.456   1.699   4.662
 5617SOL     OW16936   6.568   1.327   4.159
 5617SOL    HW116937   6.515   1.282   4.224
 5617SOL    HW216938   6.645   1.272   4.148
 5618SOL     OW16939   5.211   0.862   3.014
 5618SOL    HW116940   5.239   0.879   3.104
 5618SOL    HW216941   5.278   0.804   2.979
 5619SOL     OW16942   6.449   1.431   3.581
 5619SOL    HW116943   6.389   1.369   3.623
 5619SOL    HW216944   6.522   1.376   3.550
 5620SOL     OW16945   5.917   2.396   4.200
 5620SOL    HW116946   5.899   2.379   4.108
 5620SOL    HW216947   5.920   2.491   4.206
 5621SOL     OW16948   5.015   1.166   4.788
 5621SOL    HW116949   5.079   1.169   4.717
 5621SOL    HW216950   4.949   1.104   4.758
 5622SOL     OW16951   5.227   1.531   4.487
 5622SOL    HW116952   5.231   1.489   4.401
 5622SOL    HW216953   5.176   1.610   4.473
 5623SOL     OW16954   6.569   1.610   4.730
 5623SOL    HW116955   6.633   1.646   4.668
 5623SOL    HW216956   6.597   1.643   4.815
 5624SOL     OW16957   6.308   1.468   3.956
 5624SOL    HW116958   6.241   1.536   3.968
 5624SOL    HW216959   6.343   1.455   4.044
 5625SOL     OW16960   5.266   1.885   4.084
 5625SOL    HW116961   5.324   1.846   4.150
 5625SOL    HW216962   5.223   1.810   4.043
 5626SOL     OW16963   6.280   1.698   4.491
 5626SOL    HW116964   6.234   1.775   4.458
 5626SOL    HW216965   6.361   1.694   4.440
 5627SOL     OW16966   6.236   0.396   3.993
 5627SOL    HW116967   6.160   0.339   3.975
 5627SOL    HW216968   6.234   0.460   3.922
 5628SOL     OW16969   5.045   1.112   3.319
 5628SOL    HW116970   5.115   1.139   3.377
 5628SOL    HW216971   5.072   1.143   3.232
 5629SOL     OW16972   5.597   1.279   3.753
 5629SOL    HW116973   5.670   1.242   3.803
 5629SOL    HW216974   5.522   1.223   3.774
 5630SOL     OW16975   6.018   0.626   4.321
 5630SOL    HW116976   6.025   0.683   4.245
 5630SOL    HW216977   6.052   0.542   4.290
 5631SOL     OW16978   5.414   0.563   3.621
 5631SOL    HW116979   5.481   0.588   3.557
 5631SOL    HW216980   5.332   0.593   3.582
 5632SOL     OW16981   5.689   1.338   2.915
 5632SOL    HW116982   5.733   1.263   2.954
 5632SOL    HW216983   5.658   1.389   2.990
 5633SOL     OW16984   6.073   1.540   4.507
 5633SOL    HW116985   6.143   1.603   4.496
 5633SOL    HW216986   6.103   1.481   4.577
 5634SOL     OW16987   6.290   0.947   2.515
 5634SOL    HW116988   6.227   0.887   2.475
 5634SOL    HW216989   6.242   0.988   2.587
 5635SOL     OW16990   6.118   0.704   3.078
 5635SOL    HW116991   6.174   0.778   3.055
 5635SOL    HW216992   6.143   0.635   3.016
 5636SOL     OW16993   6.166   0.693   2.729
 5636SOL    HW116994   6.072   0.686   2.746
 5636SOL    HW216995   6.196   0.763   2.787
 5637SOL     OW16996   6.122   1.015   3.604
 5637SOL    HW116997   6.082   1.093   3.642
 5637SOL    HW216998   6.093   0.943   3.660
 5638SOL     OW16999   5.135   0.698   2.720
 5638SOL    HW117000   5.055   0.720   2.672
 5638SOL    HW217001   5.189   0.777   2.713
 5639SOL     OW17002   5.073   1.312   3.644
 5639SOL    HW117003   5.114   1.328   3.558
 5639SOL    HW217004   5.108   1.227   3.671
 5640SOL     OW17005   6.109   1.368   4.280
 5640SOL    HW117006   6.188   1.322   4.307
 5640SOL    HW217007   6.107   1.446   4.335
 5641SOL     OW17008   6.382   0.977   3.502
 5641SOL    HW117009   6.381   1.059   3.453
 5641SOL    HW217010   6.291   0.966   3.531
 5642SOL     OW17011   5.262   0.687   3.888
 5642SOL    HW117012   5.205   0.735   3.829
 5642SOL    HW217013   5.302   0.619   3.833
 5643SOL     OW17014   6.354   0.240   3.113
 5643SOL    HW117015   6.375   0.297   3.038
 5643SOL    HW217016   6.410   0.164   3.102
 5644SOL     OW17017   5.373   0.544   2.649
 5644SOL    HW117018   5.363   0.478   2.718
 5644SOL    HW217019   5.296   0.600   2.660
 5645SOL     OW17020   6.236   2.128   3.720
 5645SOL    HW117021   6.246   2.153   3.628
 5645SOL    HW217022   6.267   2.205   3.769
 5646SOL     OW17023   5.414   0.089   2.568
 5646SOL    HW117024   5.454   0.077   2.481
 5646SOL    HW217025   5.488   0.106   2.626
 5647SOL     OW17026   5.201   1.651   3.551
 5647SOL    HW117027   5.252   1.572   3.570
 5647SOL    HW217028   5.203   1.658   3.455
 5648SOL     OW17029   6.264   0.888   2.911
 5648SOL    HW117030   6.355   0.910   2.894
 5648SOL    HW217031   6.214   0.962   2.876
 5649SOL     OW17032   5.901   0.367   2.700
 5649SOL    HW117033   5.943   0.432   2.644
 5649SOL    HW217034   5.848   0.314   2.640
 5650SOL     OW17035   6.045   0.796   3.809
 5650SOL    HW117036   5.996   0.816   3.889
 5650SOL    HW217037   6.137   0.808   3.834
 5651SOL     OW17038   5.928   2.451   4.527
 5651SOL    HW117039   5.978   2.453   4.446
 5651SOL    HW217040   5.858   2.388   4.509
 5652SOL     OW17041   5.280   0.314   3.482
 5652SOL    HW117042   5.220   0.385   3.505
 5652SOL    HW217043   5.328   0.347   3.406
 5653SOL     OW17044   5.251   0.404   3.793
 5653SOL    HW117045   5.271   0.415   3.700
 5653SOL    HW217046   5.336   0.393   3.835
 5654SOL     OW17047   5.629   2.457   3.126
 5654SOL    HW117048   5.721   2.475   3.110
 5654SOL    HW217049   5.599   2.411   3.047
 5655SOL     OW17050   5.120   2.005   4.324
 5655SOL    HW117051   5.051   2.055   4.280
 5655SOL    HW217052   5.151   1.943   4.258
 5656SOL     OW17053   5.755   1.097   2.575
 5656SOL    HW117054   5.718   1.186   2.579
 5656SOL    HW217055   5.684   1.043   2.542
 5657SOL     OW17056   5.158   0.971   2.598
 5657SOL    HW117057   5.140   1.054   2.640
 5657SOL    HW217058   5.098   0.967   2.524
 5658SOL     OW17059   6.172   1.083   2.728
 5658SOL    HW117060   6.251   1.138   2.735
 5658SOL    HW217061   6.111   1.135   2.676
 5659SOL     OW17062   6.628   1.531   2.718
 5659SOL    HW117063   6.637   1.469   2.646
 5659SOL    HW217064   6.554   1.587   2.693
 5660SOL     OW17065   5.020   0.011   3.489
 5660SOL    HW117066   5.026  -0.083   3.468
 5660SOL    HW217067   4.928   0.032   3.474
 5661SOL     OW17068   6.277   0.545   2.515
 5661SOL    HW117069   6.241   0.607   2.578
 5661SOL    HW217070   6.358   0.514   2.554
 5662SOL     OW17071   5.728   1.780   3.539
 5662SOL    HW117072   5.823   1.774   3.553
 5662SOL    HW217073   5.695   1.821   3.619
 5663SOL     OW17074   5.849   2.121   3.488
 5663SOL    HW117075   5.758   2.130   3.516
 5663SOL    HW217076   5.848   2.145   3.396
 5664SOL     OW17077   5.870   0.373   3.975
 5664SOL    HW117078   5.830   0.456   3.952
 5664SOL    HW217079   5.935   0.357   3.906
 5665SOL     OW17080   5.909   0.883   3.437
 5665SOL    HW117081   5.905   0.796   3.478
 5665SOL    HW217082   5.954   0.868   3.354
 5666SOL     OW17083   5.704   1.101   3.517
 5666SOL    HW117084   5.760   1.037   3.472
 5666SOL    HW217085   5.738   1.104   3.606
 5667SOL     OW17086   5.549   2.222   3.547
 5667SOL    HW117087   5.544   2.270   3.464
 5667SOL    HW217088   5.465   2.175   3.552
 5668SOL     OW17089   5.641   0.569   2.723
 5668SOL    HW117090   5.645   0.595   2.815
 5668SOL    HW217091   5.557   0.524   2.714
 5669SOL     OW17092   6.198   2.369   3.834
 5669SOL    HW117093   6.259   2.419   3.889
 5669SOL    HW217094   6.137   2.328   3.897
 5670SOL     OW17095   6.302   2.146   3.458
 5670SOL    HW117096   6.364   2.109   3.394
 5670SOL    HW217097   6.308   2.240   3.445
 5671SOL     OW17098   5.247   2.418   4.745
 5671SOL    HW117099   5.171   2.412   4.687
 5671SOL    HW217100   5.272   2.327   4.760
 5672SOL     OW17101   6.019   1.108   3.343
 5672SOL    HW117102   6.114   1.118   3.338
 5672SOL    HW217103   6.006   1.034   3.401
 5673SOL     OW17104   5.982   0.409   3.364
 5673SOL    HW117105   5.921   0.365   3.423
 5673SOL    HW217106   5.963   0.372   3.278
 5674SOL     OW17107   5.196   1.063   3.731
 5674SOL    HW117108   5.166   0.973   3.747
 5674SOL    HW217109   5.199   1.103   3.818
 5675SOL     OW17110   5.888   0.696   2.771
 5675SOL    HW117111   5.825   0.769   2.774
 5675SOL    HW217112   5.852   0.636   2.706
 5676SOL     OW17113   5.665   0.704   4.233
 5676SOL    HW117114   5.722   0.659   4.296
 5676SOL    HW217115   5.674   0.797   4.255
 5677SOL     OW17116   6.229   1.886   3.507
 5677SOL    HW117117   6.286   1.834   3.564
 5677SOL    HW217118   6.257   1.976   3.521
 5678SOL     OW17119   6.085   1.638   3.634
 5678SOL    HW117120   6.035   1.717   3.656
 5678SOL    HW217121   6.174   1.657   3.665
 5679SOL     OW17122   5.333   1.788   2.686
 5679SOL    HW117123   5.344   1.729   2.611
 5679SOL    HW217124   5.328   1.731   2.762
 5680SOL     OW17125   4.985   2.203   3.912
 5680SOL    HW117126   4.941   2.121   3.890
 5680SOL    HW217127   5.061   2.205   3.854
 5681SOL     OW17128   5.599   1.922   4.160
 5681SOL    HW117129   5.571   2.001   4.113
 5681SOL    HW217130   5.665   1.953   4.223
 5682SOL     OW17131   6.069   1.118   4.540
 5682SOL    HW117132   6.057   1.125   4.445
 5682SOL    HW217133   6.023   1.037   4.564
 5683SOL     OW17134   5.030   2.156   2.533
 5683SOL    HW117135   4.975   2.219   2.579
 5683SOL    HW217136   5.111   2.154   2.584
 5684SOL     OW17137   6.310   4.070   0.888
 5684SOL    HW117138   6.373   4.040   0.953
 5684SOL    HW217139   6.261   4.139   0.933
 5685SOL     OW17140   6.845   4.001   1.527
 5685SOL    HW117141   6.894   3.928   1.563
 5685SOL    HW217142   6.788   4.030   1.599
 5686SOL     OW17143   6.407   2.693   2.188
 5686SOL    HW117144   6.330   2.741   2.219
 5686SOL    HW217145   6.480   2.730   2.238
 5687SOL     OW17146   5.323   4.721   1.980
 5687SOL    HW117147   5.336   4.660   2.053
 5687SOL    HW217148   5.266   4.674   1.920
 5688SOL     OW17149   5.295   4.955   1.836
 5688SOL    HW117150   5.201   4.966   1.823
 5688SOL    HW217151   5.303   4.871   1.883
 5689SOL     OW17152   6.371   4.162   1.188
 5689SOL    HW117153   6.418   4.174   1.271
 5689SOL    HW217154   6.385   4.070   1.166
 5690SOL     OW17155   6.734   4.611   0.610
 5690SOL    HW117156   6.777   4.696   0.612
 5690SOL    HW217157   6.805   4.548   0.623
 5691SOL     OW17158   5.361   3.421   0.777
 5691SOL    HW117159   5.429   3.472   0.734
 5691SOL    HW217160   5.352   3.463   0.863
 5692SOL     OW17161   5.677   3.990   0.672
 5692SOL    HW117162   5.647   4.027   0.755
 5692SOL    HW217163   5.772   3.985   0.681
 5693SOL     OW17164   5.453   4.242   1.409
 5693SOL    HW117165   5.375   4.216   1.360
 5693SOL    HW217166   5.419   4.288   1.486
 5694SOL     OW17167   5.538   3.214   0.778
 5694SOL    HW117168   5.591   3.231   0.856
 5694SOL    HW217169   5.479   3.289   0.773
 5695SOL     OW17170   5.904   4.920   1.435
 5695SOL    HW117171   5.921   4.858   1.364
 5695SOL    HW217172   5.832   4.975   1.403
 5696SOL     OW17173   5.088   4.320   0.457
 5696SOL    HW117174   5.024   4.256   0.426
 5696SOL    HW217175   5.172   4.277   0.444
 5697SOL     OW17176   6.114   4.629   0.741
 5697SOL    HW117177   6.084   4.702   0.794
 5697SOL    HW217178   6.169   4.577   0.801
 5698SOL     OW17179   5.108   3.887   0.733
 5698SOL    HW117180   5.047   3.927   0.796
 5698SOL    HW217181   5.051   3.840   0.672
 5699SOL     OW17182   6.167   2.897   2.141
 5699SOL    HW117183   6.172   2.857   2.055
 5699SOL    HW217184   6.176   2.991   2.125
 5700SOL     OW17185   6.236   4.854   1.878
 5700SOL    HW117186   6.174   4.791   1.841
 5700SOL    HW217187   6.301   4.801   1.924
 5701SOL     OW17188   5.852   3.495   1.880
 5701SOL    HW117189   5.793   3.466   1.949
 5701SOL    HW217190   5.839   3.590   1.874
 5702SOL     OW17191   5.322   2.622   2.075
 5702SOL    HW117192   5.318   2.565   2.152
 5702SOL    HW217193   5.340   2.563   2.002
 5703SOL     OW17194   6.265   4.006   2.249
 5703SOL    HW117195   6.301   3.917   2.240
 5703SOL    HW217196   6.317   4.059   2.189
 5704SOL     OW17197   6.195   4.757   0.337
 5704SOL    HW117198   6.158   4.843   0.355
 5704SOL    HW217199   6.168   4.737   0.247
 5705SOL     OW17200   5.799   2.933   0.499
 5705SOL    HW117201   5.837   2.941   0.412
 5705SOL    HW217202   5.755   3.016   0.514
 5706SOL     OW17203   5.410   3.937   0.582
 5706SOL    HW117204   5.488   3.951   0.635
 5706SOL    HW217205   5.381   3.848   0.604
 5707SOL     OW17206   5.240   3.645   0.563
 5707SOL    HW117207   5.154   3.673   0.531
 5707SOL    HW217208   5.251   3.556   0.529
 5708SOL     OW17209   5.831   4.398   0.346
 5708SOL    HW117210   5.897   4.358   0.290
 5708SOL    HW217211   5.881   4.451   0.409
 5709SOL     OW17212   5.037   2.976   1.792
 5709SOL    HW117213   5.053   2.949   1.702
 5709SOL    HW217214   4.952   2.938   1.814
 5710SOL     OW17215   6.251   3.930   0.527
 5710SOL    HW117216   6.209   3.927   0.613
 5710SOL    HW217217   6.313   4.003   0.533
 5711SOL     OW17218   5.139   4.262   1.991
 5711SOL    HW117219   5.062   4.293   2.038
 5711SOL    HW217220   5.176   4.341   1.951
 5712SOL     OW17221   5.832   3.910   2.194
 5712SOL    HW117222   5.809   3.961   2.117
 5712SOL    HW217223   5.787   3.827   2.182
 5713SOL     OW17224   6.049   2.593   1.158
 5713SOL    HW117225   6.133   2.605   1.114
 5713SOL    HW217226   6.062   2.520   1.217
 5714SOL     OW17227   5.006   4.485   0.632
 5714SOL    HW117228   5.036   4.438   0.555
 5714SOL    HW217229   5.081   4.484   0.692
 5715SOL     OW17230   5.909   4.915   0.579
 5715SOL    HW117231   5.935   4.931   0.488
 5715SOL    HW217232   5.989   4.928   0.629
 5716SOL     OW17233   6.181   3.940   0.022
 5716SOL    HW117234   6.153   3.856  -0.014
 5716SOL    HW217235   6.218   3.987  -0.052
 5717SOL     OW17236   5.527   2.980   1.647
 5717SOL    HW117237   5.541   3.069   1.681
 5717SOL    HW217238   5.571   2.923   1.710
 5718SOL     OW17239   6.256   2.786   0.888
 5718SOL    HW117240   6.274   2.762   0.797
 5718SOL    HW217241   6.181   2.845   0.883
 5719SOL     OW17242   5.388   4.315   1.841
 5719SOL    HW117243   5.475   4.325   1.803
 5719SOL    HW217244   5.400   4.251   1.911
 5720SOL     OW17245   5.220   2.736   1.749
 5720SOL    HW117246   5.245   2.729   1.842
 5720SOL    HW217247   5.228   2.829   1.729
 5721SOL     OW17248   5.530   3.992   1.553
 5721SOL    HW117249   5.499   4.063   1.498
 5721SOL    HW217250   5.597   4.031   1.608
 5722SOL     OW17251   5.623   2.823   1.854
 5722SOL    HW117252   5.580   2.822   1.940
 5722SOL    HW217253   5.620   2.732   1.825
 5723SOL     OW17254   5.346   3.612   1.919
 5723SOL    HW117255   5.288   3.577   1.851
 5723SOL    HW217256   5.415   3.546   1.927
 5724SOL     OW17257   6.034   4.276   1.646
 5724SOL    HW117258   6.055   4.326   1.567
 5724SOL    HW217259   6.032   4.185   1.617
 5725SOL     OW17260   5.462   2.764   1.487
 5725SOL    HW117261   5.483   2.706   1.559
 5725SOL    HW217262   5.484   2.852   1.519
 5726SOL     OW17263   5.823   4.426   1.846
 5726SOL    HW117264   5.816   4.348   1.901
 5726SOL    HW217265   5.855   4.394   1.762
 5727SOL     OW17266   6.392   4.953   1.508
 5727SOL    HW117267   6.383   5.033   1.560
 5727SOL    HW217268   6.371   4.882   1.569
 5728SOL     OW17269   5.717   3.090   1.434
 5728SOL    HW117270   5.698   3.169   1.384
 5728SOL    HW217271   5.643   3.082   1.496
 5729SOL     OW17272   5.814   4.730   0.764
 5729SOL    HW117273   5.851   4.756   0.679
 5729SOL    HW217274   5.725   4.764   0.763
 5730SOL     OW17275   5.603   2.744   0.520
 5730SOL    HW117276   5.680   2.799   0.529
 5730SOL    HW217277   5.585   2.713   0.608
 5731SOL     OW17278   5.042   2.906   2.190
 5731SOL    HW117279   5.035   2.821   2.148
 5731SOL    HW217280   5.068   2.966   2.119
 5732SOL     OW17281   6.036   4.971   0.336
 5732SOL    HW117282   6.086   5.052   0.337
 5732SOL    HW217283   5.996   4.969   0.249
 5733SOL     OW17284   6.571   2.850   2.453
 5733SOL    HW117285   6.637   2.795   2.496
 5733SOL    HW217286   6.566   2.928   2.507
 5734SOL     OW17287   6.372   3.745   1.901
 5734SOL    HW117288   6.409   3.794   1.974
 5734SOL    HW217289   6.389   3.653   1.923
 5735SOL     OW17290   5.583   3.505   1.760
 5735SOL    HW117291   5.645   3.552   1.704
 5735SOL    HW217292   5.498   3.518   1.717
 5736SOL     OW17293   6.595   3.736   0.363
 5736SOL    HW117294   6.512   3.779   0.343
 5736SOL    HW217295   6.658   3.776   0.303
 5737SOL     OW17296   5.400   3.042   1.943
 5737SOL    HW117297   5.402   3.023   1.849
 5737SOL    HW217298   5.430   2.961   1.985
 5738SOL     OW17299   6.085   3.596   1.460
 5738SOL    HW117300   6.164   3.648   1.475
 5738SOL    HW217301   6.107   3.509   1.493
 5739SOL     OW17302   5.588   2.847   1.137
 5739SOL    HW117303   5.550   2.759   1.135
 5739SOL    HW217304   5.515   2.904   1.160
 5740SOL     OW17305   5.152   4.689   1.197
 5740SOL    HW117306   5.086   4.712   1.132
 5740SOL    HW217307   5.209   4.626   1.154
 5741SOL     OW17308   5.485   2.960   0.728
 5741SOL    HW117309   5.561   2.902   0.726
 5741SOL    HW217310   5.513   3.034   0.781
 5742SOL     OW17311   6.730   2.735   0.152
 5742SOL    HW117312   6.794   2.757   0.220
 5742SOL    HW217313   6.753   2.647   0.124
 5743SOL     OW17314   5.575   4.779   1.343
 5743SOL    HW117315   5.601   4.766   1.251
 5743SOL    HW217316   5.487   4.817   1.337
 5744SOL     OW17317   6.148   3.100   0.856
 5744SOL    HW117318   6.126   3.133   0.769
 5744SOL    HW217319   6.093   3.022   0.867
 5745SOL     OW17320   6.293   3.394   1.401
 5745SOL    HW117321   6.340   3.323   1.445
 5745SOL    HW217322   6.342   3.473   1.425
 5746SOL     OW17323   5.563   3.455   2.390
 5746SOL    HW117324   5.474   3.489   2.377
 5746SOL    HW217325   5.552   3.361   2.402
 5747SOL     OW17326   5.062   3.888   1.457
 5747SOL    HW117327   4.996   3.867   1.523
 5747SOL    HW217328   5.037   3.975   1.425
 5748SOL     OW17329   5.026   4.712   0.404
 5748SOL    HW117330   5.121   4.721   0.407
 5748SOL    HW217331   5.004   4.665   0.485
 5749SOL     OW17332   5.283   3.206   1.686
 5749SOL    HW117333   5.190   3.189   1.673
 5749SOL    HW217334   5.323   3.187   1.601
 5750SOL     OW17335   4.990   3.077   0.431
 5750SOL    HW117336   5.037   3.005   0.473
 5750SOL    HW217337   5.052   3.112   0.367
 5751SOL     OW17338   5.027   3.372   0.987
 5751SOL    HW117339   4.949   3.323   0.960
 5751SOL    HW217340   5.021   3.454   0.938
 5752SOL     OW17341   5.479   3.507   0.358
 5752SOL    HW117342   5.436   3.590   0.336
 5752SOL    HW217343   5.424   3.440   0.317
 5753SOL     OW17344   6.024   3.366   1.693
 5753SOL    HW117345   6.104   3.419   1.699
 5753SOL    HW217346   5.962   3.410   1.750
 5754SOL     OW17347   5.315   3.473   1.663
 5754SOL    HW117348   5.242   3.520   1.624
 5754SOL    HW217349   5.321   3.392   1.613
 5755SOL     OW17350   5.126   2.585   1.400
 5755SOL    HW117351   5.139   2.580   1.305
 5755SOL    HW217352   5.202   2.633   1.432
 5756SOL     OW17353   5.243   3.355   2.171
 5756SOL    HW117354   5.268   3.447   2.186
 5756SOL    HW217355   5.267   3.338   2.080
 5757SOL     OW17356   5.950   3.801   1.594
 5757SOL    HW117357   6.007   3.837   1.661
 5757SOL    HW217358   5.991   3.719   1.568
 5758SOL     OW17359   5.821   2.726   1.015
 5758SOL    HW117360   5.878   2.687   1.081
 5758SOL    HW217361   5.741   2.749   1.063
 5759SOL     OW17362   5.605   4.156   2.431
 5759SOL    HW117363   5.560   4.172   2.514
 5759SOL    HW217364   5.675   4.096   2.453
 5760SOL     OW17365   4.996   3.337   2.336
 5760SOL    HW117366   5.067   3.282   2.303
 5760SOL    HW217367   4.938   3.348   2.261
 5761SOL     OW17368   5.669   3.168   1.021
 5761SOL    HW117369   5.726   3.092   1.008
 5761SOL    HW217370   5.695   3.204   1.106
 5762SOL     OW17371   6.006   3.010   2.471
 5762SOL    HW117372   6.099   3.030   2.479
 5762SOL    HW217373   6.003   2.928   2.423
 5763SOL     OW17374   4.991   2.669   2.057
 5763SOL    HW117375   5.005   2.581   2.093
 5763SOL    HW217376   4.979   2.655   1.963
 5764SOL     OW17377   5.748   4.163   1.629
 5764SOL    HW117378   5.812   4.158   1.700
 5764SOL    HW217379   5.705   4.248   1.641
 5765SOL     OW17380   5.640   3.186   0.521
 5765SOL    HW117381   5.690   3.267   0.525
 5765SOL    HW217382   5.619   3.166   0.612
 5766SOL     OW17383   5.241   3.216   0.976
 5766SOL    HW117384   5.168   3.278   0.982
 5766SOL    HW217385   5.295   3.249   0.904
 5767SOL     OW17386   5.340   4.532   1.105
 5767SOL    HW117387   5.389   4.459   1.066
 5767SOL    HW217388   5.346   4.516   1.199
 5768SOL     OW17389   5.076   3.605   1.486
 5768SOL    HW117390   5.082   3.697   1.460
 5768SOL    HW217391   4.983   3.586   1.486
 5769SOL     OW17392   5.800   4.634   2.310
 5769SOL    HW117393   5.863   4.570   2.344
 5769SOL    HW217394   5.815   4.634   2.215
 5770SOL     OW17395   5.645   4.429   1.255
 5770SOL    HW117396   5.568   4.380   1.284
 5770SOL    HW217397   5.647   4.506   1.312
 5771SOL     OW17398   5.094   2.958   1.062
 5771SOL    HW117399   5.065   3.000   0.982
 5771SOL    HW217400   5.015   2.945   1.113
 5772SOL     OW17401   5.641   3.463   2.068
 5772SOL    HW117402   5.667   3.386   2.117
 5772SOL    HW217403   5.573   3.432   2.008
 5773SOL     OW17404   5.053   4.703   0.934
 5773SOL    HW117405   4.981   4.656   0.892
 5773SOL    HW217406   5.132   4.674   0.888
 5774SOL     OW17407   6.455   3.589   1.261
 5774SOL    HW117408   6.432   3.509   1.215
 5774SOL    HW217409   6.373   3.639   1.264
 5775SOL     OW17410   5.422   3.777   0.340
 5775SOL    HW117411   5.513   3.782   0.368
 5775SOL    HW217412   5.382   3.857   0.376
 5776SOL     OW17413   6.045   4.657   1.782
 5776SOL    HW117414   6.002   4.743   1.783
 5776SOL    HW217415   5.976   4.596   1.806
 5777SOL     OW17416   6.386   3.068   1.848
 5777SOL    HW117417   6.337   2.993   1.815
 5777SOL    HW217418   6.338   3.097   1.925
 5778SOL     OW17419   6.778   3.220   0.776
 5778SOL    HW117420   6.721   3.235   0.852
 5778SOL    HW217421   6.744   3.140   0.737
 5779SOL     OW17422   5.343   3.622   2.348
 5779SOL    HW117423   5.270   3.657   2.297
 5779SOL    HW217424   5.337   3.667   2.432
 5780SOL     OW17425   5.016   2.598   1.649
 5780SOL    HW117426   5.088   2.656   1.671
 5780SOL    HW217427   5.032   2.573   1.558
 5781SOL     OW17428   5.904   3.117   1.153
 5781SOL    HW117429   5.905   3.175   1.229
 5781SOL    HW217430   5.990   3.074   1.155
 5782SOL     OW17431   5.749   3.151   2.474
 5782SOL    HW117432   5.689   3.118   2.542
 5782SOL    HW217433   5.823   3.091   2.477
 5783SOL     OW17434   5.533   2.899   2.445
 5783SOL    HW117435   5.471   2.957   2.489
 5783SOL    HW217436   5.489   2.875   2.364
 5784SOL     OW17437   5.601   4.951   1.561
 5784SOL    HW117438   5.632   5.009   1.492
 5784SOL    HW217439   5.601   4.864   1.521
 5785SOL     OW17440   6.280   3.726   0.894
 5785SOL    HW117441   6.372   3.741   0.871
 5785SOL    HW217442   6.231   3.763   0.820
 5786SOL     OW17443   6.262   4.252   0.444
 5786SOL    HW117444   6.280   4.339   0.410
 5786SOL    HW217445   6.180   4.226   0.402
 5787SOL     OW17446   5.215   3.843   1.761
 5787SOL    HW117447   5.181   3.756   1.781
 5787SOL    HW217448   5.158   3.875   1.691
 5788SOL     OW17449   6.021   4.039   1.474
 5788SOL    HW117450   5.983   3.951   1.465
 5788SOL    HW217451   5.960   4.096   1.427
 5789SOL     OW17452   6.438   4.182   0.631
 5789SOL    HW117453   6.387   4.205   0.553
 5789SOL    HW217454   6.372   4.152   0.693
 5790SOL     OW17455   5.771   2.670   2.234
 5790SOL    HW117456   5.783   2.610   2.161
 5790SOL    HW217457   5.858   2.705   2.251
 5791SOL     OW17458   5.613   4.253   0.443
 5791SOL    HW117459   5.678   4.311   0.403
 5791SOL    HW217460   5.633   4.255   0.537
 5792SOL     OW17461   5.577   3.553   0.630
 5792SOL    HW117462   5.550   3.538   0.540
 5792SOL    HW217463   5.672   3.542   0.629
 5793SOL     OW17464   5.755   4.691   2.029
 5793SOL    HW117465   5.743   4.607   1.985
 5793SOL    HW217466   5.671   4.709   2.070
 5794SOL     OW17467   5.391   3.190   0.434
 5794SOL    HW117468   5.473   3.187   0.485
 5794SOL    HW217469   5.419   3.211   0.345
 5795SOL     OW17470   5.964   4.605   0.471
 5795SOL    HW117471   5.994   4.593   0.561
 5795SOL    HW217472   6.018   4.677   0.438
 5796SOL     OW17473   5.654   4.034   1.953
 5796SOL    HW117474   5.607   3.951   1.944
 5796SOL    HW217475   5.610   4.079   2.025
 5797SOL     OW17476   4.990   3.040   0.823
 5797SOL    HW117477   5.020   3.112   0.768
 5797SOL    HW217478   5.005   2.961   0.770
 5798SOL     OW17479   6.364   4.214   1.713
 5798SOL    HW117480   6.378   4.301   1.752
 5798SOL    HW217481   6.311   4.232   1.635
 5799SOL     OW17482   5.103   2.976   1.551
 5799SOL    HW117483   5.164   3.031   1.503
 5799SOL    HW217484   5.071   2.912   1.487
 5800SOL     OW17485   5.599   4.096   0.902
 5800SOL    HW117486   5.663   4.151   0.947
 5800SOL    HW217487   5.580   4.025   0.964
 5801SOL     OW17488   6.377   3.055   1.303
 5801SOL    HW117489   6.459   3.054   1.253
 5801SOL    HW217490   6.308   3.044   1.237
 5802SOL     OW17491   5.179   3.728   2.116
 5802SOL    HW117492   5.233   3.795   2.158
 5802SOL    HW217493   5.219   3.717   2.029
 5803SOL     OW17494   5.705   2.634   1.332
 5803SOL    HW117495   5.691   2.722   1.367
 5803SOL    HW217496   5.634   2.621   1.269
 5804SOL     OW17497   6.387   2.878   0.363
 5804SOL    HW117498   6.411   2.958   0.408
 5804SOL    HW217499   6.452   2.869   0.293
 5805SOL     OW17500   5.024   4.879   1.830
 5805SOL    HW117501   4.997   4.944   1.765
 5805SOL    HW217502   4.984   4.797   1.801
 5806SOL     OW17503   6.348   3.661   1.556
 5806SOL    HW117504   6.419   3.600   1.576
 5806SOL    HW217505   6.391   3.735   1.514
 5807SOL     OW17506   6.010   4.148   2.267
 5807SOL    HW117507   5.980   4.070   2.219
 5807SOL    HW217508   6.103   4.154   2.248
 5808SOL     OW17509   5.655   4.384   0.744
 5808SOL    HW117510   5.750   4.378   0.740
 5808SOL    HW217511   5.632   4.450   0.679
 5809SOL     OW17512   6.366   4.876   0.870
 5809SOL    HW117513   6.274   4.901   0.873
 5809SOL    HW217514   6.395   4.902   0.783
 5810SOL     OW17515   5.528   4.884   2.042
 5810SOL    HW117516   5.546   4.931   1.960
 5810SOL    HW217517   5.451   4.831   2.024
 5811SOL     OW17518   4.992   4.319   1.125
 5811SOL    HW117519   4.957   4.349   1.041
 5811SOL    HW217520   5.061   4.258   1.102
 5812SOL     OW17521   6.448   4.449   1.272
 5812SOL    HW117522   6.510   4.518   1.295
 5812SOL    HW217523   6.363   4.492   1.273
 5813SOL     OW17524   5.323   4.862   1.324
 5813SOL    HW117525   5.306   4.947   1.284
 5813SOL    HW217526   5.272   4.800   1.272
 5814SOL     OW17527   6.067   2.829   1.289
 5814SOL    HW117528   6.050   2.745   1.246
 5814SOL    HW217529   6.111   2.882   1.223
 5815SOL     OW17530   5.387   3.312   1.947
 5815SOL    HW117531   5.401   3.218   1.950
 5815SOL    HW217532   5.354   3.328   1.858
 5816SOL     OW17533   5.234   3.791   0.939
 5816SOL    HW117534   5.325   3.762   0.934
 5816SOL    HW217535   5.216   3.829   0.852
 5817SOL     OW17536   6.006   2.796   0.645
 5817SOL    HW117537   6.069   2.812   0.575
 5817SOL    HW217538   5.922   2.824   0.610
 5818SOL     OW17539   5.263   2.882   2.360
 5818SOL    HW117540   5.186   2.909   2.312
 5818SOL    HW217541   5.274   2.789   2.339
 5819SOL     OW17542   6.339   4.646   2.047
 5819SOL    HW117543   6.265   4.646   2.108
 5819SOL    HW217544   6.415   4.626   2.101
 5820SOL     OW17545   6.114   4.395   1.881
 5820SOL    HW117546   6.202   4.420   1.854
 5820SOL    HW217547   6.080   4.344   1.807
 5821SOL     OW17548   6.619   4.091   1.674
 5821SOL    HW117549   6.543   4.144   1.651
 5821SOL    HW217550   6.584   4.003   1.686
 5822SOL     OW17551   5.303   4.505   1.369
 5822SOL    HW117552   5.282   4.451   1.446
 5822SOL    HW217553   5.264   4.590   1.389
 5823SOL     OW17554   5.642   2.712   0.783
 5823SOL    HW117555   5.614   2.620   0.787
 5823SOL    HW217556   5.705   2.721   0.855
 5824SOL     OW17557   5.620   3.832   0.048
 5824SOL    HW117558   5.595   3.901   0.110
 5824SOL    HW217559   5.607   3.872  -0.038
 5825SOL     OW17560   5.072   3.616   1.809
 5825SOL    HW117561   4.999   3.578   1.857
 5825SOL    HW217562   5.086   3.555   1.736
 5826SOL     OW17563   5.461   4.889   0.851
 5826SOL    HW117564   5.516   4.889   0.772
 5826SOL    HW217565   5.381   4.934   0.824
 5827SOL     OW17566   5.826   3.604   0.557
 5827SOL    HW117567   5.869   3.526   0.523
 5827SOL    HW217568   5.892   3.645   0.614
 5828SOL     OW17569   5.460   4.357   0.943
 5828SOL    HW117570   5.511   4.383   0.866
 5828SOL    HW217571   5.514   4.289   0.984
 5829SOL     OW17572   5.207   4.448   0.817
 5829SOL    HW117573   5.269   4.456   0.890
 5829SOL    HW217574   5.193   4.354   0.807
 5830SOL     OW17575   5.666   3.748   1.574
 5830SOL    HW117576   5.623   3.834   1.581
 5830SOL    HW217577   5.759   3.769   1.564
 5831SOL     OW17578   6.120   3.937   0.758
 5831SOL    HW117579   6.039   3.948   0.809
 5831SOL    HW217580   6.189   3.968   0.817
 5832SOL     OW17581   6.216   2.985   1.101
 5832SOL    HW117582   6.219   2.899   1.058
 5832SOL    HW217583   6.215   3.048   1.028
 5833SOL     OW17584   5.603   4.580   0.558
 5833SOL    HW117585   5.677   4.629   0.522
 5833SOL    HW217586   5.532   4.643   0.563
 5834SOL     OW17587   5.525   2.526   2.334
 5834SOL    HW117588   5.515   2.446   2.282
 5834SOL    HW217589   5.603   2.568   2.298
 5835SOL     OW17590   5.493   3.835   1.868
 5835SOL    HW117591   5.416   3.877   1.830
 5835SOL    HW217592   5.462   3.747   1.892
 5836SOL     OW17593   5.008   3.255   1.564
 5836SOL    HW117594   4.925   3.217   1.535
 5836SOL    HW217595   5.038   3.307   1.489
 5837SOL     OW17596   6.128   2.549   0.675
 5837SOL    HW117597   6.084   2.634   0.673
 5837SOL    HW217598   6.216   2.567   0.640
 5838SOL     OW17599   6.282   4.343   1.484
 5838SOL    HW117600   6.227   4.419   1.464
 5838SOL    HW217601   6.368   4.365   1.449
 5839SOL     OW17602   6.852   3.682   0.252
 5839SOL    HW117603   6.888   3.640   0.173
 5839SOL    HW217604   6.782   3.623   0.280
 5840SOL     OW17605   5.867   4.151   1.873
 5840SOL    HW117606   5.779   4.115   1.888
 5840SOL    HW217607   5.923   4.102   1.933
 5841SOL     OW17608   5.705   3.235   2.196
 5841SOL    HW117609   5.720   3.210   2.288
 5841SOL    HW217610   5.633   3.178   2.168
 5842SOL     OW17611   5.958   3.749   1.088
 5842SOL    HW117612   6.010   3.736   1.009
 5842SOL    HW217613   5.882   3.798   1.058
 5843SOL     OW17614   5.070   3.296   1.270
 5843SOL    HW117615   5.076   3.329   1.181
 5843SOL    HW217616   4.979   3.268   1.279
 5844SOL     OW17617   6.346   4.490   1.831
 5844SOL    HW117618   6.334   4.539   1.912
 5844SOL    HW217619   6.405   4.544   1.778
 5845SOL     OW17620   5.359   4.552   0.441
 5845SOL    HW117621   5.450   4.529   0.459
 5845SOL    HW217622   5.309   4.475   0.469
 5846SOL     OW17623   5.813   4.178   1.358
 5846SOL    HW117624   5.738   4.213   1.310
 5846SOL    HW217625   5.779   4.161   1.446
 5847SOL     OW17626   6.183   4.606   1.537
 5847SOL    HW117627   6.134   4.603   1.455
 5847SOL    HW217628   6.116   4.603   1.606
 5848SOL     OW17629   6.660   3.452   0.624
 5848SOL    HW117630   6.718   3.527   0.638
 5848SOL    HW217631   6.694   3.384   0.681
 5849SOL     OW17632   6.260   3.779   1.281
 5849SOL    HW117633   6.257   3.854   1.341
 5849SOL    HW217634   6.173   3.778   1.240
 5850SOL     OW17635   5.423   3.520   1.019
 5850SOL    HW117636   5.489   3.485   1.079
 5850SOL    HW217637   5.369   3.578   1.074
 5851SOL     OW17638   5.335   3.901   2.230
 5851SOL    HW117639   5.427   3.896   2.207
 5851SOL    HW217640   5.301   3.974   2.177
 5852SOL     OW17641   5.779   4.652   0.222
 5852SOL    HW117642   5.718   4.582   0.197
 5852SOL    HW217643   5.833   4.614   0.291
 5853SOL     OW17644   5.190   4.190   1.348
 5853SOL    HW117645   5.195   4.197   1.253
 5853SOL    HW217646   5.097   4.174   1.365
 5854SOL     OW17647   5.616   3.532   1.426
 5854SOL    HW117648   5.692   3.587   1.410
 5854SOL    HW217649   5.567   3.578   1.494
 5855SOL     OW17650   6.197   2.606   1.764
 5855SOL    HW117651   6.111   2.615   1.722
 5855SOL    HW217652   6.194   2.520   1.805
 5856SOL     OW17653   5.709   4.594   1.476
 5856SOL    HW117654   5.800   4.568   1.458
 5856SOL    HW217655   5.701   4.681   1.438
 5857SOL     OW17656   5.341   3.796   1.409
 5857SOL    HW117657   5.392   3.836   1.480
 5857SOL    HW217658   5.256   3.840   1.414
 5858SOL     OW17659   5.908   4.399   0.769
 5858SOL    HW117660   5.987   4.453   0.776
 5858SOL    HW217661   5.887   4.374   0.859
 5859SOL     OW17662   6.213   2.713   2.454
 5859SOL    HW117663   6.211   2.655   2.530
 5859SOL    HW217664   6.297   2.759   2.461
 5860SOL     OW17665   5.896   4.036   0.363
 5860SOL    HW117666   5.824   3.981   0.393
 5860SOL    HW217667   5.932   4.074   0.444
 5861SOL     OW17668   6.310   4.520   0.428
 5861SOL    HW117669   6.298   4.608   0.393
 5861SOL    HW217670   6.290   4.528   0.521
 5862SOL     OW17671   6.084   4.866   0.888
 5862SOL    HW117672   5.993   4.895   0.888
 5862SOL    HW217673   6.124   4.912   0.814
 5863SOL     OW17674   5.043   4.917   0.614
 5863SOL    HW117675   4.968   4.875   0.655
 5863SOL    HW217676   5.040   4.890   0.523
 5864SOL     OW17677   5.221   2.525   0.808
 5864SOL    HW117678   5.159   2.539   0.880
 5864SOL    HW217679   5.169   2.482   0.740
 5865SOL     OW17680   6.208   2.887   1.788
 5865SOL    HW117681   6.174   2.905   1.700
 5865SOL    HW217682   6.233   2.795   1.786
 5866SOL     OW17683   5.474   3.722   0.834
 5866SOL    HW117684   5.486   3.664   0.760
 5866SOL    HW217685   5.536   3.690   0.900
 5867SOL     OW17686   5.110   4.419   2.376
 5867SOL    HW117687   5.084   4.485   2.440
 5867SOL    HW217688   5.060   4.441   2.298
 5868SOL     OW17689   5.562   2.562   1.802
 5868SOL    HW117690   5.600   2.530   1.720
 5868SOL    HW217691   5.468   2.559   1.787
 5869SOL     OW17692   5.958   4.772   1.216
 5869SOL    HW117693   5.919   4.724   1.143
 5869SOL    HW217694   6.046   4.792   1.186
 5870SOL     OW17695   5.103   3.102   2.023
 5870SOL    HW117696   5.096   3.074   1.931
 5870SOL    HW217697   5.191   3.140   2.030
 5871SOL     OW17698   6.521   3.467   0.381
 5871SOL    HW117699   6.541   3.560   0.371
 5871SOL    HW217700   6.574   3.439   0.455
 5872SOL     OW17701   5.249   2.582   1.137
 5872SOL    HW117702   5.270   2.654   1.077
 5872SOL    HW217703   5.172   2.540   1.097
 5873SOL     OW17704   5.228   3.034   0.604
 5873SOL    HW117705   5.292   3.016   0.673
 5873SOL    HW217706   5.265   3.109   0.556
 5874SOL     OW17707   6.389   4.406   2.479
 5874SOL    HW117708   6.406   4.338   2.544
 5874SOL    HW217709   6.304   4.441   2.503
 5875SOL     OW17710   6.247   3.496   1.740
 5875SOL    HW117711   6.333   3.467   1.771
 5875SOL    HW217712   6.267   3.558   1.670
 5876SOL     OW17713   5.983   4.148   0.596
 5876SOL    HW117714   5.938   4.229   0.621
 5876SOL    HW217715   6.053   4.139   0.660
 5877SOL     OW17716   5.965   4.395   1.121
 5877SOL    HW117717   5.915   4.472   1.094
 5877SOL    HW217718   6.054   4.413   1.090
 5878SOL     OW17719   5.939   4.423   1.405
 5878SOL    HW117720   5.892   4.342   1.426
 5878SOL    HW217721   5.960   4.415   1.312
 5879SOL     OW17722   5.386   3.949   1.173
 5879SOL    HW117723   5.333   3.879   1.212
 5879SOL    HW217724   5.467   3.949   1.224
 5880SOL     OW17725   5.714   3.854   1.031
 5880SOL    HW117726   5.650   3.845   1.102
 5880SOL    HW217727   5.699   3.777   0.976
 5881SOL     OW17728   6.114   4.535   2.441
 5881SOL    HW117729   6.047   4.475   2.474
 5881SOL    HW217730   6.107   4.528   2.346
 5882SOL     OW17731   6.335   2.673   1.115
 5882SOL    HW117732   6.425   2.693   1.140
 5882SOL    HW217733   6.328   2.706   1.025
 5883SOL     OW17734   5.530   2.565   1.092
 5883SOL    HW117735   5.460   2.530   1.148
 5883SOL    HW217736   5.513   2.526   1.006
 5884SOL     OW17737   6.009   3.368   2.482
 5884SOL    HW117738   5.981   3.448   2.527
 5884SOL    HW217739   5.959   3.298   2.524
 5885SOL     OW17740   5.835   3.773   1.856
 5885SOL    HW117741   5.776   3.842   1.826
 5885SOL    HW217742   5.923   3.808   1.838
 5886SOL     OW17743   5.497   2.823   2.088
 5886SOL    HW117744   5.443   2.744   2.086
 5886SOL    HW217745   5.565   2.804   2.153
 5887SOL     OW17746   5.870   3.352   0.512
 5887SOL    HW117747   5.837   3.366   0.423
 5887SOL    HW217748   5.936   3.284   0.502
 5888SOL     OW17749   5.624   3.311   1.302
 5888SOL    HW117750   5.535   3.291   1.272
 5888SOL    HW217751   5.614   3.391   1.353
 5889SOL     OW17752   5.361   4.184   0.464
 5889SOL    HW117753   5.451   4.216   0.459
 5889SOL    HW217754   5.361   4.123   0.538
 5890SOL     OW17755   5.851   3.647   1.308
 5890SOL    HW117756   5.928   3.635   1.362
 5890SOL    HW217757   5.882   3.696   1.232
 5891SOL     OW17758   5.885   2.693   1.713
 5891SOL    HW117759   5.832   2.740   1.777
 5891SOL    HW217760   5.872   2.742   1.632
 5892SOL     OW17761   5.912   4.015   0.936
 5892SOL    HW117762   5.827   3.998   0.976
 5892SOL    HW217763   5.967   4.046   1.008
 5893SOL     OW17764   5.968   3.365   2.207
 5893SOL    HW117765   5.872   3.370   2.202
 5893SOL    HW217766   5.987   3.373   2.301
 5894SOL     OW17767   6.376   4.871   0.549
 5894SOL    HW117768   6.445   4.876   0.483
 5894SOL    HW217769   6.327   4.792   0.526
 5895SOL     OW17770   5.266   4.170   0.808
 5895SOL    HW117771   5.264   4.091   0.753
 5895SOL    HW217772   5.358   4.184   0.828
 5896SOL     OW17773   5.149   2.773   0.575
 5896SOL    HW117774   5.205   2.850   0.583
 5896SOL    HW217775   5.210   2.700   0.568
 5897SOL     OW17776   5.545   4.154   2.164
 5897SOL    HW117777   5.587   4.171   2.248
 5897SOL    HW217778   5.456   4.186   2.175
 5898SOL     OW17779   6.568   3.814   1.672
 5898SOL    HW117780   6.515   3.769   1.737
 5898SOL    HW217781   6.645   3.759   1.661
 5899SOL     OW17782   5.625   3.707   2.214
 5899SOL    HW117783   5.587   3.653   2.284
 5899SOL    HW217784   5.620   3.652   2.136
 5900SOL     OW17785   5.211   3.349   0.527
 5900SOL    HW117786   5.239   3.366   0.617
 5900SOL    HW217787   5.278   3.291   0.492
 5901SOL     OW17788   6.449   3.918   1.094
 5901SOL    HW117789   6.389   3.856   1.136
 5901SOL    HW217790   6.522   3.863   1.063
 5902SOL     OW17791   5.917   4.883   1.713
 5902SOL    HW117792   5.899   4.866   1.621
 5902SOL    HW217793   5.920   4.978   1.719
 5903SOL     OW17794   5.300   4.249   2.213
 5903SOL    HW117795   5.250   4.224   2.135
 5903SOL    HW217796   5.238   4.296   2.268
 5904SOL     OW17797   5.015   3.653   2.301
 5904SOL    HW117798   5.079   3.656   2.230
 5904SOL    HW217799   4.949   3.591   2.271
 5905SOL     OW17800   5.227   4.018   2.000
 5905SOL    HW117801   5.231   3.976   1.914
 5905SOL    HW217802   5.176   4.097   1.986
 5906SOL     OW17803   6.569   4.097   2.243
 5906SOL    HW117804   6.633   4.133   2.181
 5906SOL    HW217805   6.597   4.130   2.328
 5907SOL     OW17806   6.308   3.955   1.469
 5907SOL    HW117807   6.241   4.023   1.481
 5907SOL    HW217808   6.343   3.942   1.557
 5908SOL     OW17809   5.266   4.372   1.597
 5908SOL    HW117810   5.324   4.333   1.663
 5908SOL    HW217811   5.223   4.297   1.556
 5909SOL     OW17812   6.483   3.857   2.137
 5909SOL    HW117813   6.531   3.934   2.166
 5909SOL    HW217814   6.469   3.806   2.217
 5910SOL     OW17815   6.280   4.185   2.004
 5910SOL    HW117816   6.234   4.262   1.971
 5910SOL    HW217817   6.361   4.181   1.953
 5911SOL     OW17818   6.236   2.883   1.506
 5911SOL    HW117819   6.160   2.826   1.488
 5911SOL    HW217820   6.234   2.947   1.435
 5912SOL     OW17821   5.045   3.599   0.832
 5912SOL    HW117822   5.115   3.626   0.890
 5912SOL    HW217823   5.072   3.630   0.745
 5913SOL     OW17824   5.597   3.766   1.266
 5913SOL    HW117825   5.670   3.729   1.316
 5913SOL    HW217826   5.522   3.710   1.287
 5914SOL     OW17827   6.018   3.113   1.834
 5914SOL    HW117828   6.025   3.170   1.758
 5914SOL    HW217829   6.052   3.029   1.803
 5915SOL     OW17830   5.414   3.050   1.134
 5915SOL    HW117831   5.481   3.075   1.070
 5915SOL    HW217832   5.332   3.080   1.095
 5916SOL     OW17833   5.689   3.825   0.428
 5916SOL    HW117834   5.733   3.750   0.467
 5916SOL    HW217835   5.658   3.876   0.503
 5917SOL     OW17836   6.073   4.027   2.020
 5917SOL    HW117837   6.143   4.090   2.009
 5917SOL    HW217838   6.103   3.968   2.090
 5918SOL     OW17839   6.118   3.191   0.591
 5918SOL    HW117840   6.174   3.265   0.568
 5918SOL    HW217841   6.143   3.122   0.529
 5919SOL     OW17842   6.166   3.180   0.242
 5919SOL    HW117843   6.072   3.173   0.259
 5919SOL    HW217844   6.196   3.250   0.300
 5920SOL     OW17845   6.122   3.502   1.117
 5920SOL    HW117846   6.082   3.580   1.155
 5920SOL    HW217847   6.093   3.430   1.173
 5921SOL     OW17848   6.020   2.756   2.289
 5921SOL    HW117849   6.060   2.823   2.233
 5921SOL    HW217850   6.089   2.730   2.349
 5922SOL     OW17851   5.135   3.185   0.233
 5922SOL    HW117852   5.055   3.207   0.185
 5922SOL    HW217853   5.189   3.264   0.226
 5923SOL     OW17854   5.073   3.799   1.157
 5923SOL    HW117855   5.114   3.815   1.071
 5923SOL    HW217856   5.108   3.714   1.184
 5924SOL     OW17857   6.109   3.855   1.793
 5924SOL    HW117858   6.188   3.809   1.820
 5924SOL    HW217859   6.107   3.933   1.848
 5925SOL     OW17860   6.382   3.464   1.015
 5925SOL    HW117861   6.381   3.546   0.966
 5925SOL    HW217862   6.291   3.453   1.044
 5926SOL     OW17863   5.262   3.174   1.401
 5926SOL    HW117864   5.205   3.222   1.342
 5926SOL    HW217865   5.302   3.106   1.346
 5927SOL     OW17866   6.354   2.727   0.626
 5927SOL    HW117867   6.375   2.784   0.551
 5927SOL    HW217868   6.410   2.651   0.615
 5928SOL     OW17869   6.236   4.615   1.233
 5928SOL    HW117870   6.246   4.640   1.141
 5928SOL    HW217871   6.267   4.692   1.282
 5929SOL     OW17872   5.414   2.576   0.081
 5929SOL    HW117873   5.454   2.564  -0.006
 5929SOL    HW217874   5.488   2.593   0.139
 5930SOL     OW17875   6.055   3.798   2.260
 5930SOL    HW117876   5.968   3.837   2.250
 5930SOL    HW217877   6.056   3.724   2.200
 5931SOL     OW17878   5.201   4.138   1.064
 5931SOL    HW117879   5.252   4.059   1.083
 5931SOL    HW217880   5.203   4.145   0.968
 5932SOL     OW17881   6.264   3.375   0.424
 5932SOL    HW117882   6.355   3.397   0.407
 5932SOL    HW217883   6.214   3.449   0.389
 5933SOL     OW17884   6.045   3.283   1.322
 5933SOL    HW117885   5.996   3.303   1.402
 5933SOL    HW217886   6.137   3.295   1.347
 5934SOL     OW17887   5.928   4.938   2.040
 5934SOL    HW117888   5.978   4.940   1.959
 5934SOL    HW217889   5.858   4.875   2.022
 5935SOL     OW17890   5.280   2.801   0.995
 5935SOL    HW117891   5.220   2.872   1.018
 5935SOL    HW217892   5.328   2.834   0.919
 5936SOL     OW17893   5.251   2.891   1.306
 5936SOL    HW117894   5.271   2.902   1.213
 5936SOL    HW217895   5.336   2.880   1.348
 5937SOL     OW17896   5.629   4.944   0.639
 5937SOL    HW117897   5.721   4.962   0.623
 5937SOL    HW217898   5.599   4.898   0.560
 5938SOL     OW17899   6.393   3.208   2.268
 5938SOL    HW117900   6.321   3.206   2.205
 5938SOL    HW217901   6.356   3.170   2.348
 5939SOL     OW17902   5.120   4.492   1.837
 5939SOL    HW117903   5.051   4.542   1.793
 5939SOL    HW217904   5.151   4.430   1.771
 5940SOL     OW17905   6.628   4.018   0.231
 5940SOL    HW117906   6.637   3.956   0.159
 5940SOL    HW217907   6.554   4.074   0.206
 5941SOL     OW17908   5.020   2.498   1.002
 5941SOL    HW117909   5.026   2.404   0.981
 5941SOL    HW217910   4.928   2.519   0.987
 5942SOL     OW17911   5.728   4.267   1.052
 5942SOL    HW117912   5.823   4.261   1.066
 5942SOL    HW217913   5.695   4.308   1.132
 5943SOL     OW17914   5.849   4.608   1.001
 5943SOL    HW117915   5.758   4.617   1.029
 5943SOL    HW217916   5.848   4.632   0.909
 5944SOL     OW17917   5.870   2.860   1.488
 5944SOL    HW117918   5.830   2.943   1.465
 5944SOL    HW217919   5.935   2.844   1.419
 5945SOL     OW17920   5.909   3.370   0.950
 5945SOL    HW117921   5.905   3.283   0.991
 5945SOL    HW217922   5.954   3.355   0.867
 5946SOL     OW17923   5.704   3.588   1.030
 5946SOL    HW117924   5.760   3.524   0.985
 5946SOL    HW217925   5.738   3.591   1.119
 5947SOL     OW17926   5.549   4.709   1.060
 5947SOL    HW117927   5.544   4.757   0.977
 5947SOL    HW217928   5.465   4.662   1.065
 5948SOL     OW17929   6.127   3.148   2.076
 5948SOL    HW117930   6.084   3.224   2.114
 5948SOL    HW217931   6.075   3.127   1.999
 5949SOL     OW17932   5.641   3.056   0.236
 5949SOL    HW117933   5.645   3.082   0.328
 5949SOL    HW217934   5.557   3.011   0.227
 5950SOL     OW17935   6.198   4.856   1.347
 5950SOL    HW117936   6.259   4.906   1.402
 5950SOL    HW217937   6.137   4.815   1.410
 5951SOL     OW17938   6.302   4.633   0.971
 5951SOL    HW117939   6.364   4.596   0.907
 5951SOL    HW217940   6.308   4.727   0.958
 5952SOL     OW17941   6.019   3.595   0.856
 5952SOL    HW117942   6.114   3.605   0.851
 5952SOL    HW217943   6.006   3.521   0.914
 5953SOL     OW17944   5.400   3.232   2.379
 5953SOL    HW117945   5.331   3.263   2.320
 5953SOL    HW217946   5.377   3.141   2.397
 5954SOL     OW17947   5.982   2.896   0.877
 5954SOL    HW117948   5.921   2.852   0.936
 5954SOL    HW217949   5.963   2.859   0.791
 5955SOL     OW17950   5.196   3.550   1.244
 5955SOL    HW117951   5.166   3.460   1.260
 5955SOL    HW217952   5.199   3.590   1.331
 5956SOL     OW17953   5.888   3.183   0.284
 5956SOL    HW117954   5.825   3.256   0.287
 5956SOL    HW217955   5.852   3.123   0.219
 5957SOL     OW17956   5.665   3.191   1.746
 5957SOL    HW117957   5.722   3.146   1.809
 5957SOL    HW217958   5.674   3.284   1.768
 5958SOL     OW17959   6.229   4.373   1.020
 5958SOL    HW117960   6.286   4.321   1.077
 5958SOL    HW217961   6.257   4.463   1.034
 5959SOL     OW17962   6.085   4.125   1.147
 5959SOL    HW117963   6.035   4.204   1.169
 5959SOL    HW217964   6.174   4.144   1.178
 5960SOL     OW17965   4.985   4.690   1.425
 5960SOL    HW117966   4.941   4.608   1.403
 5960SOL    HW217967   5.061   4.692   1.367
 5961SOL     OW17968   5.599   4.409   1.673
 5961SOL    HW117969   5.571   4.488   1.626
 5961SOL    HW217970   5.665   4.440   1.736
 5962SOL     OW17971   6.069   3.605   2.053
 5962SOL    HW117972   6.057   3.612   1.958
 5962SOL    HW217973   6.023   3.524   2.077
 5963SOL     OW17974   6.067   4.444   2.160
 5963SOL    HW117975   6.060   4.449   2.065
 5963SOL    HW217976   6.035   4.357   2.182
 5964SOL     OW17977   6.310   4.070   3.375
 5964SOL    HW117978   6.373   4.040   3.440
 5964SOL    HW217979   6.261   4.139   3.420
 5965SOL     OW17980   5.619   4.823   2.864
 5965SOL    HW117981   5.627   4.914   2.835
 5965SOL    HW217982   5.683   4.776   2.811
 5966SOL     OW17983   6.845   4.001   4.014
 5966SOL    HW117984   6.894   3.928   4.050
 5966SOL    HW217985   6.788   4.030   4.086
 5967SOL     OW17986   6.407   2.693   4.675
 5967SOL    HW117987   6.330   2.741   4.706
 5967SOL    HW217988   6.480   2.730   4.725
 5968SOL     OW17989   5.323   4.721   4.467
 5968SOL    HW117990   5.336   4.660   4.540
 5968SOL    HW217991   5.266   4.674   4.407
 5969SOL     OW17992   5.295   4.955   4.323
 5969SOL    HW117993   5.201   4.966   4.310
 5969SOL    HW217994   5.303   4.871   4.370
 5970SOL     OW17995   6.371   4.162   3.675
 5970SOL    HW117996   6.418   4.174   3.758
 5970SOL    HW217997   6.385   4.070   3.653
 5971SOL     OW17998   6.734   4.611   3.097
 5971SOL    HW117999   6.777   4.696   3.099
 5971SOL    HW218000   6.805   4.548   3.110
 5972SOL     OW18001   5.361   3.421   3.264
 5972SOL    HW118002   5.429   3.472   3.221
 5972SOL    HW218003   5.352   3.463   3.350
 5973SOL     OW18004   5.585   4.462   2.639
 5973SOL    HW118005   5.493   4.481   2.658
 5973SOL    HW218006   5.584   4.371   2.610
 5974SOL     OW18007   5.677   3.990   3.159
 5974SOL    HW118008   5.647   4.027   3.242
 5974SOL    HW218009   5.772   3.985   3.168
 5975SOL     OW18010   5.453   4.242   3.896
 5975SOL    HW118011   5.375   4.216   3.847
 5975SOL    HW218012   5.419   4.288   3.973
 5976SOL     OW18013   5.538   3.214   3.265
 5976SOL    HW118014   5.591   3.231   3.343
 5976SOL    HW218015   5.479   3.289   3.260
 5977SOL     OW18016   5.904   4.920   3.922
 5977SOL    HW118017   5.921   4.858   3.851
 5977SOL    HW218018   5.832   4.975   3.890
 5978SOL     OW18019   5.088   4.320   2.944
 5978SOL    HW118020   5.024   4.256   2.913
 5978SOL    HW218021   5.172   4.277   2.931
 5979SOL     OW18022   6.114   4.629   3.228
 5979SOL    HW118023   6.084   4.702   3.281
 5979SOL    HW218024   6.169   4.577   3.288
 5980SOL     OW18025   5.108   3.887   3.220
 5980SOL    HW118026   5.047   3.927   3.283
 5980SOL    HW218027   5.051   3.840   3.159
 5981SOL     OW18028   5.955   4.325   2.508
 5981SOL    HW118029   5.976   4.253   2.568
 5981SOL    HW218030   5.939   4.282   2.424
 5982SOL     OW18031   6.236   4.854   4.365
 5982SOL    HW118032   6.174   4.791   4.328
 5982SOL    HW218033   6.301   4.801   4.411
 5983SOL     OW18034   5.852   3.495   4.367
 5983SOL    HW118035   5.793   3.466   4.436
 5983SOL    HW218036   5.839   3.590   4.361
 5984SOL     OW18037   5.322   2.622   4.562
 5984SOL    HW118038   5.318   2.565   4.639
 5984SOL    HW218039   5.340   2.563   4.489
 5985SOL     OW18040   6.195   4.757   2.824
 5985SOL    HW118041   6.158   4.843   2.842
 5985SOL    HW218042   6.168   4.737   2.734
 5986SOL     OW18043   5.799   2.933   2.986
 5986SOL    HW118044   5.837   2.941   2.899
 5986SOL    HW218045   5.755   3.016   3.001
 5987SOL     OW18046   5.410   3.937   3.069
 5987SOL    HW118047   5.488   3.951   3.122
 5987SOL    HW218048   5.381   3.848   3.091
 5988SOL     OW18049   5.240   3.645   3.050
 5988SOL    HW118050   5.154   3.673   3.018
 5988SOL    HW218051   5.251   3.556   3.016
 5989SOL     OW18052   5.831   4.398   2.833
 5989SOL    HW118053   5.897   4.358   2.777
 5989SOL    HW218054   5.881   4.451   2.896
 5990SOL     OW18055   5.339   4.812   2.773
 5990SOL    HW118056   5.421   4.763   2.778
 5990SOL    HW218057   5.322   4.819   2.679
 5991SOL     OW18058   5.037   2.976   4.279
 5991SOL    HW118059   5.053   2.949   4.189
 5991SOL    HW218060   4.952   2.938   4.301
 5992SOL     OW18061   6.251   3.930   3.014
 5992SOL    HW118062   6.209   3.927   3.100
 5992SOL    HW218063   6.313   4.003   3.020
 5993SOL     OW18064   5.139   4.262   4.478
 5993SOL    HW118065   5.062   4.293   4.525
 5993SOL    HW218066   5.176   4.341   4.438
 5994SOL     OW18067   5.832   3.910   4.681
 5994SOL    HW118068   5.809   3.961   4.604
 5994SOL    HW218069   5.787   3.827   4.669
 5995SOL     OW18070   5.611   4.083   2.698
 5995SOL    HW118071   5.584   4.119   2.783
 5995SOL    HW218072   5.706   4.087   2.699
 5996SOL     OW18073   6.049   2.593   3.645
 5996SOL    HW118074   6.133   2.605   3.601
 5996SOL    HW218075   6.062   2.520   3.704
 5997SOL     OW18076   5.006   4.485   3.119
 5997SOL    HW118077   5.036   4.438   3.042
 5997SOL    HW218078   5.081   4.484   3.179
 5998SOL     OW18079   5.909   4.915   3.066
 5998SOL    HW118080   5.935   4.931   2.975
 5998SOL    HW218081   5.989   4.928   3.116
 5999SOL     OW18082   6.181   3.940   2.509
 5999SOL    HW118083   6.153   3.856   2.473
 5999SOL    HW218084   6.218   3.987   2.435
 6000SOL     OW18085   5.527   2.980   4.134
 6000SOL    HW118086   5.541   3.069   4.168
 6000SOL    HW218087   5.571   2.923   4.197
 6001SOL     OW18088   6.256   2.786   3.375
 6001SOL    HW118089   6.274   2.762   3.284
 6001SOL    HW218090   6.181   2.845   3.370
 6002SOL     OW18091   5.388   4.315   4.328
 6002SOL    HW118092   5.475   4.325   4.290
 6002SOL    HW218093   5.400   4.251   4.398
 6003SOL     OW18094   5.220   2.736   4.236
 6003SOL    HW118095   5.245   2.729   4.329
 6003SOL    HW218096   5.228   2.829   4.216
 6004SOL     OW18097   5.530   3.992   4.040
 6004SOL    HW118098   5.499   4.063   3.985
 6004SOL    HW218099   5.597   4.031   4.095
 6005SOL     OW18100   5.623   2.823   4.341
 6005SOL    HW118101   5.580   2.822   4.427
 6005SOL    HW218102   5.620   2.732   4.312
 6006SOL     OW18103   5.346   3.612   4.406
 6006SOL    HW118104   5.288   3.577   4.338
 6006SOL    HW218105   5.415   3.546   4.414
 6007SOL     OW18106   6.034   4.276   4.133
 6007SOL    HW118107   6.055   4.326   4.054
 6007SOL    HW218108   6.032   4.185   4.104
 6008SOL     OW18109   5.462   2.764   3.974
 6008SOL    HW118110   5.483   2.706   4.046
 6008SOL    HW218111   5.484   2.852   4.006
 6009SOL     OW18112   5.823   4.426   4.333
 6009SOL    HW118113   5.816   4.348   4.388
 6009SOL    HW218114   5.855   4.394   4.249
 6010SOL     OW18115   6.392   4.953   3.995
 6010SOL    HW118116   6.383   5.033   4.047
 6010SOL    HW218117   6.371   4.882   4.056
 6011SOL     OW18118   5.717   3.090   3.921
 6011SOL    HW118119   5.698   3.169   3.871
 6011SOL    HW218120   5.643   3.082   3.983
 6012SOL     OW18121   5.814   4.730   3.251
 6012SOL    HW118122   5.851   4.756   3.166
 6012SOL    HW218123   5.725   4.764   3.250
 6013SOL     OW18124   5.603   2.744   3.007
 6013SOL    HW118125   5.680   2.799   3.016
 6013SOL    HW218126   5.585   2.713   3.095
 6014SOL     OW18127   6.036   4.971   2.823
 6014SOL    HW118128   6.086   5.052   2.824
 6014SOL    HW218129   5.996   4.969   2.736
 6015SOL     OW18130   6.372   3.745   4.388
 6015SOL    HW118131   6.409   3.794   4.461
 6015SOL    HW218132   6.389   3.653   4.410
 6016SOL     OW18133   6.306   2.563   2.674
 6016SOL    HW118134   6.338   2.569   2.763
 6016SOL    HW218135   6.363   2.498   2.632
 6017SOL     OW18136   5.583   3.505   4.247
 6017SOL    HW118137   5.645   3.552   4.191
 6017SOL    HW218138   5.498   3.518   4.204
 6018SOL     OW18139   6.595   3.736   2.850
 6018SOL    HW118140   6.512   3.779   2.830
 6018SOL    HW218141   6.658   3.776   2.790
 6019SOL     OW18142   5.400   3.042   4.430
 6019SOL    HW118143   5.402   3.023   4.336
 6019SOL    HW218144   5.430   2.961   4.472
 6020SOL     OW18145   6.085   3.596   3.947
 6020SOL    HW118146   6.164   3.648   3.962
 6020SOL    HW218147   6.107   3.509   3.980
 6021SOL     OW18148   5.876   3.992   2.519
 6021SOL    HW118149   5.916   3.913   2.556
 6021SOL    HW218150   5.933   4.014   2.445
 6022SOL     OW18151   5.588   2.847   3.624
 6022SOL    HW118152   5.550   2.759   3.622
 6022SOL    HW218153   5.515   2.904   3.647
 6023SOL     OW18154   5.152   4.689   3.684
 6023SOL    HW118155   5.086   4.712   3.619
 6023SOL    HW218156   5.209   4.626   3.641
 6024SOL     OW18157   5.485   2.960   3.215
 6024SOL    HW118158   5.561   2.902   3.213
 6024SOL    HW218159   5.513   3.034   3.268
 6025SOL     OW18160   6.012   3.654   2.508
 6025SOL    HW118161   6.023   3.644   2.413
 6025SOL    HW218162   5.920   3.633   2.524
 6026SOL     OW18163   6.730   2.735   2.639
 6026SOL    HW118164   6.794   2.757   2.707
 6026SOL    HW218165   6.753   2.647   2.611
 6027SOL     OW18166   5.575   4.779   3.830
 6027SOL    HW118167   5.601   4.766   3.738
 6027SOL    HW218168   5.487   4.817   3.824
 6028SOL     OW18169   6.148   3.100   3.343
 6028SOL    HW118170   6.126   3.133   3.256
 6028SOL    HW218171   6.093   3.022   3.354
 6029SOL     OW18172   5.313   4.077   2.507
 6029SOL    HW118173   5.222   4.098   2.485
 6029SOL    HW218174   5.351   4.046   2.425
 6030SOL     OW18175   6.293   3.394   3.888
 6030SOL    HW118176   6.340   3.323   3.932
 6030SOL    HW218177   6.342   3.473   3.912
 6031SOL     OW18178   5.062   3.888   3.944
 6031SOL    HW118179   4.996   3.867   4.010
 6031SOL    HW218180   5.037   3.975   3.912
 6032SOL     OW18181   5.026   4.712   2.891
 6032SOL    HW118182   5.121   4.721   2.894
 6032SOL    HW218183   5.004   4.665   2.972
 6033SOL     OW18184   5.283   3.206   4.173
 6033SOL    HW118185   5.190   3.189   4.160
 6033SOL    HW218186   5.323   3.187   4.088
 6034SOL     OW18187   4.990   3.077   2.918
 6034SOL    HW118188   5.037   3.005   2.960
 6034SOL    HW218189   5.052   3.112   2.854
 6035SOL     OW18190   5.027   3.372   3.474
 6035SOL    HW118191   4.949   3.323   3.447
 6035SOL    HW218192   5.021   3.454   3.425
 6036SOL     OW18193   5.479   3.507   2.845
 6036SOL    HW118194   5.436   3.590   2.823
 6036SOL    HW218195   5.424   3.440   2.804
 6037SOL     OW18196   6.024   3.366   4.180
 6037SOL    HW118197   6.104   3.419   4.186
 6037SOL    HW218198   5.962   3.410   4.237
 6038SOL     OW18199   5.315   3.473   4.150
 6038SOL    HW118200   5.242   3.520   4.111
 6038SOL    HW218201   5.321   3.392   4.100
 6039SOL     OW18202   5.126   2.585   3.887
 6039SOL    HW118203   5.139   2.580   3.792
 6039SOL    HW218204   5.202   2.633   3.919
 6040SOL     OW18205   5.025   4.884   4.603
 6040SOL    HW118206   4.979   4.820   4.658
 6040SOL    HW218207   4.999   4.863   4.514
 6041SOL     OW18208   5.950   3.801   4.081
 6041SOL    HW118209   6.007   3.837   4.148
 6041SOL    HW218210   5.991   3.719   4.055
 6042SOL     OW18211   5.821   2.726   3.502
 6042SOL    HW118212   5.878   2.687   3.568
 6042SOL    HW218213   5.741   2.749   3.550
 6043SOL     OW18214   5.669   3.168   3.508
 6043SOL    HW118215   5.726   3.092   3.495
 6043SOL    HW218216   5.695   3.204   3.593
 6044SOL     OW18217   5.049   3.704   2.559
 6044SOL    HW118218   5.026   3.691   2.467
 6044SOL    HW218219   5.137   3.741   2.557
 6045SOL     OW18220   4.991   2.669   4.544
 6045SOL    HW118221   5.005   2.581   4.580
 6045SOL    HW218222   4.979   2.655   4.450
 6046SOL     OW18223   5.748   4.163   4.116
 6046SOL    HW118224   5.812   4.158   4.187
 6046SOL    HW218225   5.705   4.248   4.128
 6047SOL     OW18226   5.640   3.186   3.008
 6047SOL    HW118227   5.690   3.267   3.012
 6047SOL    HW218228   5.619   3.166   3.099
 6048SOL     OW18229   5.101   2.490   2.768
 6048SOL    HW118230   5.098   2.497   2.672
 6048SOL    HW218231   5.189   2.455   2.786
 6049SOL     OW18232   5.241   3.216   3.463
 6049SOL    HW118233   5.168   3.278   3.469
 6049SOL    HW218234   5.295   3.249   3.391
 6050SOL     OW18235   6.090   2.822   2.876
 6050SOL    HW118236   6.166   2.826   2.819
 6050SOL    HW218237   6.015   2.819   2.816
 6051SOL     OW18238   5.340   4.532   3.592
 6051SOL    HW118239   5.389   4.459   3.553
 6051SOL    HW218240   5.346   4.516   3.686
 6052SOL     OW18241   5.076   3.605   3.973
 6052SOL    HW118242   5.082   3.697   3.947
 6052SOL    HW218243   4.983   3.586   3.973
 6053SOL     OW18244   5.645   4.429   3.742
 6053SOL    HW118245   5.568   4.380   3.771
 6053SOL    HW218246   5.647   4.506   3.799
 6054SOL     OW18247   5.094   2.958   3.549
 6054SOL    HW118248   5.065   3.000   3.469
 6054SOL    HW218249   5.015   2.945   3.600
 6055SOL     OW18250   5.641   3.463   4.555
 6055SOL    HW118251   5.667   3.386   4.604
 6055SOL    HW218252   5.573   3.432   4.495
 6056SOL     OW18253   5.053   4.703   3.421
 6056SOL    HW118254   4.981   4.656   3.379
 6056SOL    HW218255   5.132   4.674   3.375
 6057SOL     OW18256   6.455   3.589   3.748
 6057SOL    HW118257   6.432   3.509   3.702
 6057SOL    HW218258   6.373   3.639   3.751
 6058SOL     OW18259   5.422   3.777   2.827
 6058SOL    HW118260   5.513   3.782   2.855
 6058SOL    HW218261   5.382   3.857   2.863
 6059SOL     OW18262   6.045   4.657   4.269
 6059SOL    HW118263   6.002   4.743   4.270
 6059SOL    HW218264   5.976   4.596   4.293
 6060SOL     OW18265   6.386   3.068   4.335
 6060SOL    HW118266   6.337   2.993   4.302
 6060SOL    HW218267   6.338   3.097   4.412
 6061SOL     OW18268   6.778   3.220   3.263
 6061SOL    HW118269   6.721   3.235   3.339
 6061SOL    HW218270   6.744   3.140   3.224
 6062SOL     OW18271   5.016   2.598   4.136
 6062SOL    HW118272   5.088   2.656   4.158
 6062SOL    HW218273   5.032   2.573   4.045
 6063SOL     OW18274   5.904   3.117   3.640
 6063SOL    HW118275   5.905   3.175   3.716
 6063SOL    HW218276   5.990   3.074   3.642
 6064SOL     OW18277   5.601   4.951   4.048
 6064SOL    HW118278   5.632   5.009   3.979
 6064SOL    HW218279   5.601   4.864   4.008
 6065SOL     OW18280   6.280   3.726   3.381
 6065SOL    HW118281   6.372   3.741   3.358
 6065SOL    HW218282   6.231   3.763   3.307
 6066SOL     OW18283   6.262   4.252   2.931
 6066SOL    HW118284   6.280   4.339   2.897
 6066SOL    HW218285   6.180   4.226   2.889
 6067SOL     OW18286   5.215   3.843   4.248
 6067SOL    HW118287   5.181   3.756   4.268
 6067SOL    HW218288   5.158   3.875   4.178
 6068SOL     OW18289   6.021   4.039   3.961
 6068SOL    HW118290   5.983   3.951   3.952
 6068SOL    HW218291   5.960   4.096   3.914
 6069SOL     OW18292   6.438   4.182   3.118
 6069SOL    HW118293   6.387   4.205   3.040
 6069SOL    HW218294   6.372   4.152   3.180
 6070SOL     OW18295   5.613   4.253   2.930
 6070SOL    HW118296   5.678   4.311   2.890
 6070SOL    HW218297   5.633   4.255   3.024
 6071SOL     OW18298   5.577   3.553   3.117
 6071SOL    HW118299   5.550   3.538   3.027
 6071SOL    HW218300   5.672   3.542   3.116
 6072SOL     OW18301   5.755   4.691   4.516
 6072SOL    HW118302   5.743   4.607   4.472
 6072SOL    HW218303   5.671   4.709   4.557
 6073SOL     OW18304   5.391   3.190   2.921
 6073SOL    HW118305   5.473   3.187   2.972
 6073SOL    HW218306   5.419   3.211   2.832
 6074SOL     OW18307   5.964   4.605   2.958
 6074SOL    HW118308   5.994   4.593   3.048
 6074SOL    HW218309   6.018   4.677   2.925
 6075SOL     OW18310   5.656   2.587   2.782
 6075SOL    HW118311   5.699   2.622   2.705
 6075SOL    HW218312   5.645   2.662   2.840
 6076SOL     OW18313   5.654   4.034   4.440
 6076SOL    HW118314   5.607   3.951   4.431
 6076SOL    HW218315   5.610   4.079   4.512
 6077SOL     OW18316   4.990   3.040   3.310
 6077SOL    HW118317   5.020   3.112   3.255
 6077SOL    HW218318   5.005   2.961   3.257
 6078SOL     OW18319   6.364   4.214   4.200
 6078SOL    HW118320   6.378   4.301   4.239
 6078SOL    HW218321   6.311   4.232   4.122
 6079SOL     OW18322   5.103   2.976   4.038
 6079SOL    HW118323   5.164   3.031   3.990
 6079SOL    HW218324   5.071   2.912   3.974
 6080SOL     OW18325   5.599   4.096   3.389
 6080SOL    HW118326   5.663   4.151   3.434
 6080SOL    HW218327   5.580   4.025   3.451
 6081SOL     OW18328   6.377   3.055   3.790
 6081SOL    HW118329   6.459   3.054   3.740
 6081SOL    HW218330   6.308   3.044   3.724
 6082SOL     OW18331   6.081   4.135   2.684
 6082SOL    HW118332   6.109   4.059   2.634
 6082SOL    HW218333   6.021   4.100   2.750
 6083SOL     OW18334   5.179   3.728   4.603
 6083SOL    HW118335   5.233   3.795   4.645
 6083SOL    HW218336   5.219   3.717   4.516
 6084SOL     OW18337   5.705   2.634   3.819
 6084SOL    HW118338   5.691   2.722   3.854
 6084SOL    HW218339   5.634   2.621   3.756
 6085SOL     OW18340   6.387   2.878   2.850
 6085SOL    HW118341   6.411   2.958   2.895
 6085SOL    HW218342   6.452   2.869   2.780
 6086SOL     OW18343   5.024   4.879   4.317
 6086SOL    HW118344   4.997   4.944   4.252
 6086SOL    HW218345   4.984   4.797   4.288
 6087SOL     OW18346   6.348   3.661   4.043
 6087SOL    HW118347   6.419   3.600   4.063
 6087SOL    HW218348   6.391   3.735   4.001
 6088SOL     OW18349   5.655   4.384   3.231
 6088SOL    HW118350   5.750   4.378   3.227
 6088SOL    HW218351   5.632   4.450   3.166
 6089SOL     OW18352   6.366   4.876   3.357
 6089SOL    HW118353   6.274   4.901   3.360
 6089SOL    HW218354   6.395   4.902   3.270
 6090SOL     OW18355   5.528   4.884   4.529
 6090SOL    HW118356   5.546   4.931   4.447
 6090SOL    HW218357   5.451   4.831   4.511
 6091SOL     OW18358   4.992   4.319   3.612
 6091SOL    HW118359   4.957   4.349   3.528
 6091SOL    HW218360   5.061   4.258   3.589
 6092SOL     OW18361   6.448   4.449   3.759
 6092SOL    HW118362   6.510   4.518   3.782
 6092SOL    HW218363   6.363   4.492   3.760
 6093SOL     OW18364   5.704   2.717   2.535
 6093SOL    HW118365   5.626   2.771   2.520
 6093SOL    HW218366   5.735   2.695   2.447
 6094SOL     OW18367   5.323   4.862   3.811
 6094SOL    HW118368   5.306   4.947   3.771
 6094SOL    HW218369   5.272   4.800   3.759
 6095SOL     OW18370   6.067   2.829   3.776
 6095SOL    HW118371   6.050   2.745   3.733
 6095SOL    HW218372   6.111   2.882   3.710
 6096SOL     OW18373   5.387   3.312   4.434
 6096SOL    HW118374   5.401   3.218   4.437
 6096SOL    HW218375   5.354   3.328   4.345
 6097SOL     OW18376   5.234   3.791   3.426
 6097SOL    HW118377   5.325   3.762   3.421
 6097SOL    HW218378   5.216   3.829   3.339
 6098SOL     OW18379   6.006   2.796   3.132
 6098SOL    HW118380   6.069   2.812   3.062
 6098SOL    HW218381   5.922   2.824   3.097
 6099SOL     OW18382   6.114   4.395   4.368
 6099SOL    HW118383   6.202   4.420   4.341
 6099SOL    HW218384   6.080   4.344   4.294
 6100SOL     OW18385   6.619   4.091   4.161
 6100SOL    HW118386   6.543   4.144   4.138
 6100SOL    HW218387   6.584   4.003   4.173
 6101SOL     OW18388   5.303   4.505   3.856
 6101SOL    HW118389   5.282   4.451   3.933
 6101SOL    HW218390   5.264   4.590   3.876
 6102SOL     OW18391   5.030   4.155   2.498
 6102SOL    HW118392   5.069   4.238   2.471
 6102SOL    HW218393   4.936   4.168   2.488
 6103SOL     OW18394   5.642   2.712   3.270
 6103SOL    HW118395   5.614   2.620   3.274
 6103SOL    HW218396   5.705   2.721   3.342
 6104SOL     OW18397   5.620   3.832   2.535
 6104SOL    HW118398   5.595   3.901   2.597
 6104SOL    HW218399   5.607   3.872   2.449
 6105SOL     OW18400   5.072   3.616   4.296
 6105SOL    HW118401   4.999   3.578   4.344
 6105SOL    HW218402   5.086   3.555   4.223
 6106SOL     OW18403   5.461   4.889   3.338
 6106SOL    HW118404   5.516   4.889   3.259
 6106SOL    HW218405   5.381   4.934   3.311
 6107SOL     OW18406   5.826   3.604   3.044
 6107SOL    HW118407   5.869   3.526   3.010
 6107SOL    HW218408   5.892   3.645   3.101
 6108SOL     OW18409   5.460   4.357   3.430
 6108SOL    HW118410   5.511   4.383   3.353
 6108SOL    HW218411   5.514   4.289   3.471
 6109SOL     OW18412   5.207   4.448   3.304
 6109SOL    HW118413   5.269   4.456   3.377
 6109SOL    HW218414   5.193   4.354   3.294
 6110SOL     OW18415   5.666   3.748   4.061
 6110SOL    HW118416   5.623   3.834   4.068
 6110SOL    HW218417   5.759   3.769   4.051
 6111SOL     OW18418   6.120   3.937   3.245
 6111SOL    HW118419   6.039   3.948   3.296
 6111SOL    HW218420   6.189   3.968   3.304
 6112SOL     OW18421   6.216   2.985   3.588
 6112SOL    HW118422   6.219   2.899   3.545
 6112SOL    HW218423   6.215   3.048   3.515
 6113SOL     OW18424   5.603   4.580   3.045
 6113SOL    HW118425   5.677   4.629   3.009
 6113SOL    HW218426   5.532   4.643   3.050
 6114SOL     OW18427   5.493   3.835   4.355
 6114SOL    HW118428   5.416   3.877   4.317
 6114SOL    HW218429   5.462   3.747   4.379
 6115SOL     OW18430   5.008   3.255   4.051
 6115SOL    HW118431   4.925   3.217   4.022
 6115SOL    HW218432   5.038   3.307   3.976
 6116SOL     OW18433   6.128   2.549   3.162
 6116SOL    HW118434   6.084   2.634   3.160
 6116SOL    HW218435   6.216   2.567   3.127
 6117SOL     OW18436   5.164   2.501   2.501
 6117SOL    HW118437   5.241   2.552   2.526
 6117SOL    HW218438   5.181   2.476   2.410
 6118SOL     OW18439   6.282   4.343   3.971
 6118SOL    HW118440   6.227   4.419   3.951
 6118SOL    HW218441   6.368   4.365   3.936
 6119SOL     OW18442   6.852   3.682   2.739
 6119SOL    HW118443   6.888   3.640   2.660
 6119SOL    HW218444   6.782   3.623   2.767
 6120SOL     OW18445   5.867   4.151   4.360
 6120SOL    HW118446   5.779   4.115   4.375
 6120SOL    HW218447   5.923   4.102   4.420
 6121SOL     OW18448   5.958   3.749   3.575
 6121SOL    HW118449   6.010   3.736   3.496
 6121SOL    HW218450   5.882   3.798   3.545
 6122SOL     OW18451   5.070   3.296   3.757
 6122SOL    HW118452   5.076   3.329   3.668
 6122SOL    HW218453   4.979   3.268   3.766
 6123SOL     OW18454   6.346   4.490   4.318
 6123SOL    HW118455   6.334   4.539   4.399
 6123SOL    HW218456   6.405   4.544   4.265
 6124SOL     OW18457   5.359   4.552   2.928
 6124SOL    HW118458   5.450   4.529   2.946
 6124SOL    HW218459   5.309   4.475   2.956
 6125SOL     OW18460   5.813   4.178   3.845
 6125SOL    HW118461   5.738   4.213   3.797
 6125SOL    HW218462   5.779   4.161   3.933
 6126SOL     OW18463   6.183   4.606   4.024
 6126SOL    HW118464   6.134   4.603   3.942
 6126SOL    HW218465   6.116   4.603   4.093
 6127SOL     OW18466   6.660   3.452   3.111
 6127SOL    HW118467   6.718   3.527   3.125
 6127SOL    HW218468   6.694   3.384   3.168
 6128SOL     OW18469   6.260   3.779   3.768
 6128SOL    HW118470   6.257   3.854   3.828
 6128SOL    HW218471   6.173   3.778   3.727
 6129SOL     OW18472   5.423   3.520   3.506
 6129SOL    HW118473   5.489   3.485   3.566
 6129SOL    HW218474   5.369   3.578   3.561
 6130SOL     OW18475   5.779   4.652   2.709
 6130SOL    HW118476   5.718   4.582   2.684
 6130SOL    HW218477   5.833   4.614   2.778
 6131SOL     OW18478   5.190   4.190   3.835
 6131SOL    HW118479   5.195   4.197   3.740
 6131SOL    HW218480   5.097   4.174   3.852
 6132SOL     OW18481   5.616   3.532   3.913
 6132SOL    HW118482   5.692   3.587   3.897
 6132SOL    HW218483   5.567   3.578   3.981
 6133SOL     OW18484   6.197   2.606   4.251
 6133SOL    HW118485   6.111   2.615   4.209
 6133SOL    HW218486   6.194   2.520   4.292
 6134SOL     OW18487   5.709   4.594   3.963
 6134SOL    HW118488   5.800   4.568   3.945
 6134SOL    HW218489   5.701   4.681   3.925
 6135SOL     OW18490   6.321   3.822   2.762
 6135SOL    HW118491   6.265   3.875   2.705
 6135SOL    HW218492   6.293   3.845   2.850
 6136SOL     OW18493   5.341   3.796   3.896
 6136SOL    HW118494   5.392   3.836   3.967
 6136SOL    HW218495   5.256   3.840   3.901
 6137SOL     OW18496   5.908   4.399   3.256
 6137SOL    HW118497   5.987   4.453   3.263
 6137SOL    HW218498   5.887   4.374   3.346
 6138SOL     OW18499   5.896   4.036   2.850
 6138SOL    HW118500   5.824   3.981   2.880
 6138SOL    HW218501   5.932   4.074   2.931
 6139SOL     OW18502   5.719   3.408   2.785
 6139SOL    HW118503   5.631   3.439   2.803
 6139SOL    HW218504   5.751   3.465   2.715
 6140SOL     OW18505   6.310   4.520   2.915
 6140SOL    HW118506   6.298   4.608   2.880
 6140SOL    HW218507   6.290   4.528   3.008
 6141SOL     OW18508   6.084   4.866   3.375
 6141SOL    HW118509   5.993   4.895   3.375
 6141SOL    HW218510   6.124   4.912   3.301
 6142SOL     OW18511   5.043   4.917   3.101
 6142SOL    HW118512   4.968   4.875   3.142
 6142SOL    HW218513   5.040   4.890   3.010
 6143SOL     OW18514   5.221   2.525   3.295
 6143SOL    HW118515   5.159   2.539   3.367
 6143SOL    HW218516   5.169   2.482   3.227
 6144SOL     OW18517   6.208   2.887   4.275
 6144SOL    HW118518   6.174   2.905   4.187
 6144SOL    HW218519   6.233   2.795   4.273
 6145SOL     OW18520   5.474   3.722   3.321
 6145SOL    HW118521   5.486   3.664   3.247
 6145SOL    HW218522   5.536   3.690   3.387
 6146SOL     OW18523   6.394   4.148   2.653
 6146SOL    HW118524   6.323   4.086   2.638
 6146SOL    HW218525   6.376   4.185   2.739
 6147SOL     OW18526   5.562   2.562   4.289
 6147SOL    HW118527   5.600   2.530   4.207
 6147SOL    HW218528   5.468   2.559   4.274
 6148SOL     OW18529   5.958   4.772   3.703
 6148SOL    HW118530   5.919   4.724   3.630
 6148SOL    HW218531   6.046   4.792   3.673
 6149SOL     OW18532   5.103   3.102   4.510
 6149SOL    HW118533   5.096   3.074   4.418
 6149SOL    HW218534   5.191   3.140   4.517
 6150SOL     OW18535   6.521   3.467   2.868
 6150SOL    HW118536   6.541   3.560   2.858
 6150SOL    HW218537   6.574   3.439   2.942
 6151SOL     OW18538   5.249   2.582   3.624
 6151SOL    HW118539   5.270   2.654   3.564
 6151SOL    HW218540   5.172   2.540   3.584
 6152SOL     OW18541   5.228   3.034   3.091
 6152SOL    HW118542   5.292   3.016   3.160
 6152SOL    HW218543   5.265   3.109   3.043
 6153SOL     OW18544   5.376   3.334   2.683
 6153SOL    HW118545   5.428   3.291   2.615
 6153SOL    HW218546   5.303   3.373   2.635
 6154SOL     OW18547   6.247   3.496   4.227
 6154SOL    HW118548   6.333   3.467   4.258
 6154SOL    HW218549   6.267   3.558   4.157
 6155SOL     OW18550   5.983   4.148   3.083
 6155SOL    HW118551   5.938   4.229   3.108
 6155SOL    HW218552   6.053   4.139   3.147
 6156SOL     OW18553   5.965   4.395   3.608
 6156SOL    HW118554   5.915   4.472   3.581
 6156SOL    HW218555   6.054   4.413   3.577
 6157SOL     OW18556   5.939   4.423   3.892
 6157SOL    HW118557   5.892   4.342   3.913
 6157SOL    HW218558   5.960   4.415   3.799
 6158SOL     OW18559   5.386   3.949   3.660
 6158SOL    HW118560   5.333   3.879   3.699
 6158SOL    HW218561   5.467   3.949   3.711
 6159SOL     OW18562   5.714   3.854   3.518
 6159SOL    HW118563   5.650   3.845   3.589
 6159SOL    HW218564   5.699   3.777   3.463
 6160SOL     OW18565   5.298   3.795   2.574
 6160SOL    HW118566   5.359   3.770   2.644
 6160SOL    HW218567   5.309   3.890   2.566
 6161SOL     OW18568   5.382   2.814   2.839
 6161SOL    HW118569   5.388   2.724   2.809
 6161SOL    HW218570   5.458   2.824   2.897
 6162SOL     OW18571   6.335   2.673   3.602
 6162SOL    HW118572   6.425   2.693   3.627
 6162SOL    HW218573   6.328   2.706   3.512
 6163SOL     OW18574   5.530   2.565   3.579
 6163SOL    HW118575   5.460   2.530   3.635
 6163SOL    HW218576   5.513   2.526   3.493
 6164SOL     OW18577   5.835   3.773   4.343
 6164SOL    HW118578   5.776   3.842   4.313
 6164SOL    HW218579   5.923   3.808   4.325
 6165SOL     OW18580   5.497   2.823   4.575
 6165SOL    HW118581   5.443   2.744   4.573
 6165SOL    HW218582   5.565   2.804   4.640
 6166SOL     OW18583   5.870   3.352   2.999
 6166SOL    HW118584   5.837   3.366   2.910
 6166SOL    HW218585   5.936   3.284   2.989
 6167SOL     OW18586   5.624   3.311   3.789
 6167SOL    HW118587   5.535   3.291   3.759
 6167SOL    HW218588   5.614   3.391   3.840
 6168SOL     OW18589   5.361   4.184   2.951
 6168SOL    HW118590   5.451   4.216   2.946
 6168SOL    HW218591   5.361   4.123   3.025
 6169SOL     OW18592   5.851   3.647   3.795
 6169SOL    HW118593   5.928   3.635   3.849
 6169SOL    HW218594   5.882   3.696   3.719
 6170SOL     OW18595   5.885   2.693   4.200
 6170SOL    HW118596   5.832   2.740   4.264
 6170SOL    HW218597   5.872   2.742   4.119
 6171SOL     OW18598   5.912   4.015   3.423
 6171SOL    HW118599   5.827   3.998   3.463
 6171SOL    HW218600   5.967   4.046   3.495
 6172SOL     OW18601   6.376   4.871   3.036
 6172SOL    HW118602   6.445   4.876   2.970
 6172SOL    HW218603   6.327   4.792   3.013
 6173SOL     OW18604   5.309   4.549   2.640
 6173SOL    HW118605   5.287   4.456   2.645
 6173SOL    HW218606   5.300   4.580   2.731
 6174SOL     OW18607   5.266   4.170   3.295
 6174SOL    HW118608   5.264   4.091   3.240
 6174SOL    HW218609   5.358   4.184   3.315
 6175SOL     OW18610   5.149   2.773   3.062
 6175SOL    HW118611   5.205   2.850   3.070
 6175SOL    HW218612   5.210   2.700   3.055
 6176SOL     OW18613   6.568   3.814   4.159
 6176SOL    HW118614   6.515   3.769   4.224
 6176SOL    HW218615   6.645   3.759   4.148
 6177SOL     OW18616   5.211   3.349   3.014
 6177SOL    HW118617   5.239   3.366   3.104
 6177SOL    HW218618   5.278   3.291   2.979
 6178SOL     OW18619   6.449   3.918   3.581
 6178SOL    HW118620   6.389   3.856   3.623
 6178SOL    HW218621   6.522   3.863   3.550
 6179SOL     OW18622   5.917   4.883   4.200
 6179SOL    HW118623   5.899   4.866   4.108
 6179SOL    HW218624   5.920   4.978   4.206
 6180SOL     OW18625   5.227   4.018   4.487
 6180SOL    HW118626   5.231   3.976   4.401
 6180SOL    HW218627   5.176   4.097   4.473
 6181SOL     OW18628   6.308   3.955   3.956
 6181SOL    HW118629   6.241   4.023   3.968
 6181SOL    HW218630   6.343   3.942   4.044
 6182SOL     OW18631   5.266   4.372   4.084
 6182SOL    HW118632   5.324   4.333   4.150
 6182SOL    HW218633   5.223   4.297   4.043
 6183SOL     OW18634   6.483   3.857   4.624
 6183SOL    HW118635   6.531   3.934   4.653
 6183SOL    HW218636   6.469   3.806   4.704
 6184SOL     OW18637   6.280   4.185   4.491
 6184SOL    HW118638   6.234   4.262   4.458
 6184SOL    HW218639   6.361   4.181   4.440
 6185SOL     OW18640   6.236   2.883   3.993
 6185SOL    HW118641   6.160   2.826   3.975
 6185SOL    HW218642   6.234   2.947   3.922
 6186SOL     OW18643   5.045   3.599   3.319
 6186SOL    HW118644   5.115   3.626   3.377
 6186SOL    HW218645   5.072   3.630   3.232
 6187SOL     OW18646   5.597   3.766   3.753
 6187SOL    HW118647   5.670   3.729   3.803
 6187SOL    HW218648   5.522   3.710   3.774
 6188SOL     OW18649   6.018   3.113   4.321
 6188SOL    HW118650   6.025   3.170   4.245
 6188SOL    HW218651   6.052   3.029   4.290
 6189SOL     OW18652   5.414   3.050   3.621
 6189SOL    HW118653   5.481   3.075   3.557
 6189SOL    HW218654   5.332   3.080   3.582
 6190SOL     OW18655   5.689   3.825   2.915
 6190SOL    HW118656   5.733   3.750   2.954
 6190SOL    HW218657   5.658   3.876   2.990
 6191SOL     OW18658   6.073   4.027   4.507
 6191SOL    HW118659   6.143   4.090   4.496
 6191SOL    HW218660   6.103   3.968   4.577
 6192SOL     OW18661   6.290   3.434   2.515
 6192SOL    HW118662   6.227   3.374   2.475
 6192SOL    HW218663   6.242   3.475   2.587
 6193SOL     OW18664   6.118   3.191   3.078
 6193SOL    HW118665   6.174   3.265   3.055
 6193SOL    HW218666   6.143   3.122   3.016
 6194SOL     OW18667   6.166   3.180   2.729
 6194SOL    HW118668   6.072   3.173   2.746
 6194SOL    HW218669   6.196   3.250   2.787
 6195SOL     OW18670   6.122   3.502   3.604
 6195SOL    HW118671   6.082   3.580   3.642
 6195SOL    HW218672   6.093   3.430   3.660
 6196SOL     OW18673   5.135   3.185   2.720
 6196SOL    HW118674   5.055   3.207   2.672
 6196SOL    HW218675   5.189   3.264   2.713
 6197SOL     OW18676   5.073   3.799   3.644
 6197SOL    HW118677   5.114   3.815   3.558
 6197SOL    HW218678   5.108   3.714   3.671
 6198SOL     OW18679   6.109   3.855   4.280
 6198SOL    HW118680   6.188   3.809   4.307
 6198SOL    HW218681   6.107   3.933   4.335
 6199SOL     OW18682   6.382   3.464   3.502
 6199SOL    HW118683   6.381   3.546   3.453
 6199SOL    HW218684   6.291   3.453   3.531
 6200SOL     OW18685   5.262   3.174   3.888
 6200SOL    HW118686   5.205   3.222   3.829
 6200SOL    HW218687   5.302   3.106   3.833
 6201SOL     OW18688   6.354   2.727   3.113
 6201SOL    HW118689   6.375   2.784   3.038
 6201SOL    HW218690   6.410   2.651   3.102
 6202SOL     OW18691   5.373   3.031   2.649
 6202SOL    HW118692   5.363   2.965   2.718
 6202SOL    HW218693   5.296   3.087   2.660
 6203SOL     OW18694   6.236   4.615   3.720
 6203SOL    HW118695   6.246   4.640   3.628
 6203SOL    HW218696   6.267   4.692   3.769
 6204SOL     OW18697   5.414   2.576   2.568
 6204SOL    HW118698   5.454   2.564   2.481
 6204SOL    HW218699   5.488   2.593   2.626
 6205SOL     OW18700   5.201   4.138   3.551
 6205SOL    HW118701   5.252   4.059   3.570
 6205SOL    HW218702   5.203   4.145   3.455
 6206SOL     OW18703   6.264   3.375   2.911
 6206SOL    HW118704   6.355   3.397   2.894
 6206SOL    HW218705   6.214   3.449   2.876
 6207SOL     OW18706   5.901   2.854   2.700
 6207SOL    HW118707   5.943   2.919   2.644
 6207SOL    HW218708   5.848   2.801   2.640
 6208SOL     OW18709   6.045   3.283   3.809
 6208SOL    HW118710   5.996   3.303   3.889
 6208SOL    HW218711   6.137   3.295   3.834
 6209SOL     OW18712   5.280   2.801   3.482
 6209SOL    HW118713   5.220   2.872   3.505
 6209SOL    HW218714   5.328   2.834   3.406
 6210SOL     OW18715   5.251   2.891   3.793
 6210SOL    HW118716   5.271   2.902   3.700
 6210SOL    HW218717   5.336   2.880   3.835
 6211SOL     OW18718   5.629   4.944   3.126
 6211SOL    HW118719   5.721   4.962   3.110
 6211SOL    HW218720   5.599   4.898   3.047
 6212SOL     OW18721   5.120   4.492   4.324
 6212SOL    HW118722   5.051   4.542   4.280
 6212SOL    HW218723   5.151   4.430   4.258
 6213SOL     OW18724   5.755   3.584   2.575
 6213SOL    HW118725   5.718   3.673   2.579
 6213SOL    HW218726   5.684   3.530   2.542
 6214SOL     OW18727   5.158   3.458   2.598
 6214SOL    HW118728   5.140   3.541   2.640
 6214SOL    HW218729   5.098   3.454   2.524
 6215SOL     OW18730   6.172   3.570   2.728
 6215SOL    HW118731   6.251   3.625   2.735
 6215SOL    HW218732   6.111   3.622   2.676
 6216SOL     OW18733   6.628   4.018   2.718
 6216SOL    HW118734   6.637   3.956   2.646
 6216SOL    HW218735   6.554   4.074   2.693
 6217SOL     OW18736   5.020   2.498   3.489
 6217SOL    HW118737   5.026   2.404   3.468
 6217SOL    HW218738   4.928   2.519   3.474
 6218SOL     OW18739   6.277   3.032   2.515
 6218SOL    HW118740   6.241   3.094   2.578
 6218SOL    HW218741   6.358   3.001   2.554
 6219SOL     OW18742   5.728   4.267   3.539
 6219SOL    HW118743   5.823   4.261   3.553
 6219SOL    HW218744   5.695   4.308   3.619
 6220SOL     OW18745   5.849   4.608   3.488
 6220SOL    HW118746   5.758   4.617   3.516
 6220SOL    HW218747   5.848   4.632   3.396
 6221SOL     OW18748   5.870   2.860   3.975
 6221SOL    HW118749   5.830   2.943   3.952
 6221SOL    HW218750   5.935   2.844   3.906
 6222SOL     OW18751   5.909   3.370   3.437
 6222SOL    HW118752   5.905   3.283   3.478
 6222SOL    HW218753   5.954   3.355   3.354
 6223SOL     OW18754   5.704   3.588   3.517
 6223SOL    HW118755   5.760   3.524   3.472
 6223SOL    HW218756   5.738   3.591   3.606
 6224SOL     OW18757   5.549   4.709   3.547
 6224SOL    HW118758   5.544   4.757   3.464
 6224SOL    HW218759   5.465   4.662   3.552
 6225SOL     OW18760   5.641   3.056   2.723
 6225SOL    HW118761   5.645   3.082   2.815
 6225SOL    HW218762   5.557   3.011   2.714
 6226SOL     OW18763   6.198   4.856   3.834
 6226SOL    HW118764   6.259   4.906   3.889
 6226SOL    HW218765   6.137   4.815   3.897
 6227SOL     OW18766   6.302   4.633   3.458
 6227SOL    HW118767   6.364   4.596   3.394
 6227SOL    HW218768   6.308   4.727   3.445
 6228SOL     OW18769   6.019   3.595   3.343
 6228SOL    HW118770   6.114   3.605   3.338
 6228SOL    HW218771   6.006   3.521   3.401
 6229SOL     OW18772   5.982   2.896   3.364
 6229SOL    HW118773   5.921   2.852   3.423
 6229SOL    HW218774   5.963   2.859   3.278
 6230SOL     OW18775   5.196   3.550   3.731
 6230SOL    HW118776   5.166   3.460   3.747
 6230SOL    HW218777   5.199   3.590   3.818
 6231SOL     OW18778   5.888   3.183   2.771
 6231SOL    HW118779   5.825   3.256   2.774
 6231SOL    HW218780   5.852   3.123   2.706
 6232SOL     OW18781   5.665   3.191   4.233
 6232SOL    HW118782   5.722   3.146   4.296
 6232SOL    HW218783   5.674   3.284   4.255
 6233SOL     OW18784   6.229   4.373   3.507
 6233SOL    HW118785   6.286   4.321   3.564
 6233SOL    HW218786   6.257   4.463   3.521
 6234SOL     OW18787   6.085   4.125   3.634
 6234SOL    HW118788   6.035   4.204   3.656
 6234SOL    HW218789   6.174   4.144   3.665
 6235SOL     OW18790   5.333   4.275   2.686
 6235SOL    HW118791   5.344   4.216   2.611
 6235SOL    HW218792   5.328   4.218   2.762
 6236SOL     OW18793   4.985   4.690   3.912
 6236SOL    HW118794   4.941   4.608   3.890
 6236SOL    HW218795   5.061   4.692   3.854
 6237SOL     OW18796   5.599   4.409   4.160
 6237SOL    HW118797   5.571   4.488   4.113
 6237SOL    HW218798   5.665   4.440   4.223
 6238SOL     OW18799   6.069   3.605   4.540
 6238SOL    HW118800   6.057   3.612   4.445
 6238SOL    HW218801   6.023   3.524   4.564
 6239SOL     OW18802   5.030   4.643   2.533
 6239SOL    HW118803   4.975   4.706   2.579
 6239SOL    HW218804   5.111   4.641   2.584
 6240SOL     OW18805   6.310   6.557   0.888
 6240SOL    HW118806   6.373   6.527   0.953
 6240SOL    HW218807   6.261   6.626   0.933
 6241SOL     OW18808   6.845   6.488   1.527
 6241SOL    HW118809   6.894   6.415   1.563
 6241SOL    HW218810   6.788   6.517   1.599
 6242SOL     OW18811   6.407   5.180   2.188
 6242SOL    HW118812   6.330   5.228   2.219
 6242SOL    HW218813   6.480   5.217   2.238
 6243SOL     OW18814   6.371   6.649   1.188
 6243SOL    HW118815   6.418   6.661   1.271
 6243SOL    HW218816   6.385   6.557   1.166
 6244SOL     OW18817   5.361   5.908   0.777
 6244SOL    HW118818   5.429   5.959   0.734
 6244SOL    HW218819   5.352   5.950   0.863
 6245SOL     OW18820   5.677   6.477   0.672
 6245SOL    HW118821   5.647   6.514   0.755
 6245SOL    HW218822   5.772   6.472   0.681
 6246SOL     OW18823   5.538   5.701   0.778
 6246SOL    HW118824   5.591   5.718   0.856
 6246SOL    HW218825   5.479   5.776   0.773
 6247SOL     OW18826   5.108   6.374   0.733
 6247SOL    HW118827   5.047   6.414   0.796
 6247SOL    HW218828   5.051   6.327   0.672
 6248SOL     OW18829   6.167   5.384   2.141
 6248SOL    HW118830   6.172   5.344   2.055
 6248SOL    HW218831   6.176   5.478   2.125
 6249SOL     OW18832   5.852   5.982   1.880
 6249SOL    HW118833   5.793   5.953   1.949
 6249SOL    HW218834   5.839   6.077   1.874
 6250SOL     OW18835   5.322   5.109   2.075
 6250SOL    HW118836   5.318   5.052   2.152
 6250SOL    HW218837   5.340   5.050   2.002
 6251SOL     OW18838   6.265   6.493   2.249
 6251SOL    HW118839   6.301   6.404   2.240
 6251SOL    HW218840   6.317   6.546   2.189
 6252SOL     OW18841   5.799   5.420   0.499
 6252SOL    HW118842   5.837   5.428   0.412
 6252SOL    HW218843   5.755   5.503   0.514
 6253SOL     OW18844   5.410   6.424   0.582
 6253SOL    HW118845   5.488   6.438   0.635
 6253SOL    HW218846   5.381   6.335   0.604
 6254SOL     OW18847   5.240   6.132   0.563
 6254SOL    HW118848   5.154   6.160   0.531
 6254SOL    HW218849   5.251   6.043   0.529
 6255SOL     OW18850   5.037   5.463   1.792
 6255SOL    HW118851   5.053   5.436   1.702
 6255SOL    HW218852   4.952   5.425   1.814
 6256SOL     OW18853   6.251   6.417   0.527
 6256SOL    HW118854   6.209   6.414   0.613
 6256SOL    HW218855   6.313   6.490   0.533
 6257SOL     OW18856   5.832   6.397   2.194
 6257SOL    HW118857   5.809   6.448   2.117
 6257SOL    HW218858   5.787   6.314   2.182
 6258SOL     OW18859   6.049   5.080   1.158
 6258SOL    HW118860   6.133   5.092   1.114
 6258SOL    HW218861   6.062   5.007   1.217
 6259SOL     OW18862   6.181   6.427   0.022
 6259SOL    HW118863   6.153   6.343  -0.014
 6259SOL    HW218864   6.218   6.474  -0.052
 6260SOL     OW18865   5.527   5.467   1.647
 6260SOL    HW118866   5.541   5.556   1.681
 6260SOL    HW218867   5.571   5.410   1.710
 6261SOL     OW18868   6.256   5.273   0.888
 6261SOL    HW118869   6.274   5.249   0.797
 6261SOL    HW218870   6.181   5.332   0.883
 6262SOL     OW18871   5.220   5.223   1.749
 6262SOL    HW118872   5.245   5.216   1.842
 6262SOL    HW218873   5.228   5.316   1.729
 6263SOL     OW18874   5.623   5.310   1.854
 6263SOL    HW118875   5.580   5.309   1.940
 6263SOL    HW218876   5.620   5.219   1.825
 6264SOL     OW18877   5.346   6.099   1.919
 6264SOL    HW118878   5.288   6.064   1.851
 6264SOL    HW218879   5.415   6.033   1.927
 6265SOL     OW18880   5.462   5.251   1.487
 6265SOL    HW118881   5.483   5.193   1.559
 6265SOL    HW218882   5.484   5.339   1.519
 6266SOL     OW18883   5.717   5.577   1.434
 6266SOL    HW118884   5.698   5.656   1.384
 6266SOL    HW218885   5.643   5.569   1.496
 6267SOL     OW18886   5.603   5.231   0.520
 6267SOL    HW118887   5.680   5.286   0.529
 6267SOL    HW218888   5.585   5.200   0.608
 6268SOL     OW18889   5.042   5.393   2.190
 6268SOL    HW118890   5.035   5.308   2.148
 6268SOL    HW218891   5.068   5.453   2.119
 6269SOL     OW18892   6.571   5.337   2.453
 6269SOL    HW118893   6.637   5.282   2.496
 6269SOL    HW218894   6.566   5.415   2.507
 6270SOL     OW18895   6.372   6.232   1.901
 6270SOL    HW118896   6.409   6.281   1.974
 6270SOL    HW218897   6.389   6.140   1.923
 6271SOL     OW18898   5.583   5.992   1.760
 6271SOL    HW118899   5.645   6.039   1.704
 6271SOL    HW218900   5.498   6.005   1.717
 6272SOL     OW18901   6.595   6.223   0.363
 6272SOL    HW118902   6.512   6.266   0.343
 6272SOL    HW218903   6.658   6.263   0.303
 6273SOL     OW18904   5.400   5.529   1.943
 6273SOL    HW118905   5.402   5.510   1.849
 6273SOL    HW218906   5.430   5.448   1.985
 6274SOL     OW18907   6.085   6.083   1.460
 6274SOL    HW118908   6.164   6.135   1.475
 6274SOL    HW218909   6.107   5.996   1.493
 6275SOL     OW18910   5.588   5.334   1.137
 6275SOL    HW118911   5.550   5.246   1.135
 6275SOL    HW218912   5.515   5.391   1.160
 6276SOL     OW18913   5.485   5.447   0.728
 6276SOL    HW118914   5.561   5.389   0.726
 6276SOL    HW218915   5.513   5.521   0.781
 6277SOL     OW18916   6.730   5.222   0.152
 6277SOL    HW118917   6.794   5.244   0.220
 6277SOL    HW218918   6.753   5.134   0.124
 6278SOL     OW18919   6.148   5.587   0.856
 6278SOL    HW118920   6.126   5.620   0.769
 6278SOL    HW218921   6.093   5.509   0.867
 6279SOL     OW18922   6.293   5.881   1.401
 6279SOL    HW118923   6.340   5.810   1.445
 6279SOL    HW218924   6.342   5.960   1.425
 6280SOL     OW18925   5.563   5.942   2.390
 6280SOL    HW118926   5.474   5.976   2.377
 6280SOL    HW218927   5.552   5.848   2.402
 6281SOL     OW18928   5.062   6.375   1.457
 6281SOL    HW118929   4.996   6.354   1.523
 6281SOL    HW218930   5.037   6.462   1.425
 6282SOL     OW18931   5.283   5.693   1.686
 6282SOL    HW118932   5.190   5.676   1.673
 6282SOL    HW218933   5.323   5.674   1.601
 6283SOL     OW18934   4.990   5.564   0.431
 6283SOL    HW118935   5.037   5.492   0.473
 6283SOL    HW218936   5.052   5.599   0.367
 6284SOL     OW18937   5.027   5.859   0.987
 6284SOL    HW118938   4.949   5.810   0.960
 6284SOL    HW218939   5.021   5.941   0.938
 6285SOL     OW18940   5.479   5.994   0.358
 6285SOL    HW118941   5.436   6.077   0.336
 6285SOL    HW218942   5.424   5.927   0.317
 6286SOL     OW18943   6.024   5.853   1.693
 6286SOL    HW118944   6.104   5.906   1.699
 6286SOL    HW218945   5.962   5.897   1.750
 6287SOL     OW18946   5.315   5.960   1.663
 6287SOL    HW118947   5.242   6.007   1.624
 6287SOL    HW218948   5.321   5.879   1.613
 6288SOL     OW18949   5.126   5.072   1.400
 6288SOL    HW118950   5.139   5.067   1.305
 6288SOL    HW218951   5.202   5.120   1.432
 6289SOL     OW18952   5.243   5.842   2.171
 6289SOL    HW118953   5.268   5.934   2.186
 6289SOL    HW218954   5.267   5.825   2.080
 6290SOL     OW18955   5.950   6.288   1.594
 6290SOL    HW118956   6.007   6.324   1.661
 6290SOL    HW218957   5.991   6.206   1.568
 6291SOL     OW18958   5.821   5.213   1.015
 6291SOL    HW118959   5.878   5.174   1.081
 6291SOL    HW218960   5.741   5.236   1.063
 6292SOL     OW18961   4.996   5.824   2.336
 6292SOL    HW118962   5.067   5.769   2.303
 6292SOL    HW218963   4.938   5.835   2.261
 6293SOL     OW18964   5.669   5.655   1.021
 6293SOL    HW118965   5.726   5.579   1.008
 6293SOL    HW218966   5.695   5.691   1.106
 6294SOL     OW18967   6.006   5.497   2.471
 6294SOL    HW118968   6.099   5.517   2.479
 6294SOL    HW218969   6.003   5.415   2.423
 6295SOL     OW18970   4.991   5.156   2.057
 6295SOL    HW118971   5.005   5.068   2.093
 6295SOL    HW218972   4.979   5.142   1.963
 6296SOL     OW18973   5.640   5.673   0.521
 6296SOL    HW118974   5.690   5.754   0.525
 6296SOL    HW218975   5.619   5.653   0.612
 6297SOL     OW18976   5.241   5.703   0.976
 6297SOL    HW118977   5.168   5.765   0.982
 6297SOL    HW218978   5.295   5.736   0.904
 6298SOL     OW18979   6.090   5.309   0.389
 6298SOL    HW118980   6.166   5.313   0.332
 6298SOL    HW218981   6.015   5.306   0.329
 6299SOL     OW18982   5.076   6.092   1.486
 6299SOL    HW118983   5.082   6.184   1.460
 6299SOL    HW218984   4.983   6.073   1.486
 6300SOL     OW18985   5.094   5.445   1.062
 6300SOL    HW118986   5.065   5.487   0.982
 6300SOL    HW218987   5.015   5.432   1.113
 6301SOL     OW18988   5.641   5.950   2.068
 6301SOL    HW118989   5.667   5.873   2.117
 6301SOL    HW218990   5.573   5.919   2.008
 6302SOL     OW18991   6.455   6.076   1.261
 6302SOL    HW118992   6.432   5.996   1.215
 6302SOL    HW218993   6.373   6.126   1.264
 6303SOL     OW18994   5.422   6.264   0.340
 6303SOL    HW118995   5.513   6.269   0.368
 6303SOL    HW218996   5.382   6.344   0.376
 6304SOL     OW18997   6.386   5.555   1.848
 6304SOL    HW118998   6.337   5.480   1.815
 6304SOL    HW218999   6.338   5.584   1.925
 6305SOL     OW19000   6.778   5.707   0.776
 6305SOL    HW119001   6.721   5.722   0.852
 6305SOL    HW219002   6.744   5.627   0.737
 6306SOL     OW19003   5.343   6.109   2.348
 6306SOL    HW119004   5.270   6.144   2.297
 6306SOL    HW219005   5.337   6.154   2.432
 6307SOL     OW19006   5.016   5.085   1.649
 6307SOL    HW119007   5.088   5.143   1.671
 6307SOL    HW219008   5.032   5.060   1.558
 6308SOL     OW19009   5.904   5.604   1.153
 6308SOL    HW119010   5.905   5.662   1.229
 6308SOL    HW219011   5.990   5.561   1.155
 6309SOL     OW19012   5.749   5.638   2.474
 6309SOL    HW119013   5.689   5.605   2.542
 6309SOL    HW219014   5.823   5.578   2.477
 6310SOL     OW19015   5.533   5.386   2.445
 6310SOL    HW119016   5.471   5.444   2.489
 6310SOL    HW219017   5.489   5.362   2.364
 6311SOL     OW19018   6.280   6.213   0.894
 6311SOL    HW119019   6.372   6.228   0.871
 6311SOL    HW219020   6.231   6.250   0.820
 6312SOL     OW19021   6.262   6.739   0.444
 6312SOL    HW119022   6.280   6.826   0.410
 6312SOL    HW219023   6.180   6.713   0.402
 6313SOL     OW19024   5.215   6.330   1.761
 6313SOL    HW119025   5.181   6.243   1.781
 6313SOL    HW219026   5.158   6.362   1.691
 6314SOL     OW19027   6.021   6.526   1.474
 6314SOL    HW119028   5.983   6.438   1.465
 6314SOL    HW219029   5.960   6.583   1.427
 6315SOL     OW19030   5.577   6.040   0.630
 6315SOL    HW119031   5.550   6.025   0.540
 6315SOL    HW219032   5.672   6.029   0.629
 6316SOL     OW19033   5.391   5.677   0.434
 6316SOL    HW119034   5.473   5.674   0.485
 6316SOL    HW219035   5.419   5.698   0.345
 6317SOL     OW19036   5.654   6.521   1.953
 6317SOL    HW119037   5.607   6.438   1.944
 6317SOL    HW219038   5.610   6.566   2.025
 6318SOL     OW19039   4.990   5.527   0.823
 6318SOL    HW119040   5.020   5.599   0.768
 6318SOL    HW219041   5.005   5.448   0.770
 6319SOL     OW19042   6.364   6.701   1.713
 6319SOL    HW119043   6.378   6.788   1.752
 6319SOL    HW219044   6.311   6.719   1.635
 6320SOL     OW19045   5.103   5.463   1.551
 6320SOL    HW119046   5.164   5.518   1.503
 6320SOL    HW219047   5.071   5.399   1.487
 6321SOL     OW19048   6.377   5.542   1.303
 6321SOL    HW119049   6.459   5.541   1.253
 6321SOL    HW219050   6.308   5.531   1.237
 6322SOL     OW19051   5.179   6.215   2.116
 6322SOL    HW119052   5.233   6.282   2.158
 6322SOL    HW219053   5.219   6.204   2.029
 6323SOL     OW19054   5.705   5.121   1.332
 6323SOL    HW119055   5.691   5.209   1.367
 6323SOL    HW219056   5.634   5.108   1.269
 6324SOL     OW19057   6.348   6.148   1.556
 6324SOL    HW119058   6.419   6.087   1.576
 6324SOL    HW219059   6.391   6.222   1.514
 6325SOL     OW19060   6.010   6.635   2.267
 6325SOL    HW119061   5.980   6.557   2.219
 6325SOL    HW219062   6.103   6.641   2.248
 6326SOL     OW19063   4.992   6.806   1.125
 6326SOL    HW119064   4.957   6.836   1.041
 6326SOL    HW219065   5.061   6.745   1.102
 6327SOL     OW19066   6.067   5.316   1.289
 6327SOL    HW119067   6.050   5.232   1.246
 6327SOL    HW219068   6.111   5.369   1.223
 6328SOL     OW19069   5.387   5.799   1.947
 6328SOL    HW119070   5.401   5.705   1.950
 6328SOL    HW219071   5.354   5.815   1.858
 6329SOL     OW19072   5.234   6.278   0.939
 6329SOL    HW119073   5.325   6.249   0.934
 6329SOL    HW219074   5.216   6.316   0.852
 6330SOL     OW19075   6.006   5.283   0.645
 6330SOL    HW119076   6.069   5.299   0.575
 6330SOL    HW219077   5.922   5.311   0.610
 6331SOL     OW19078   5.263   5.369   2.360
 6331SOL    HW119079   5.186   5.396   2.312
 6331SOL    HW219080   5.274   5.276   2.339
 6332SOL     OW19081   5.642   5.199   0.783
 6332SOL    HW119082   5.614   5.107   0.787
 6332SOL    HW219083   5.705   5.208   0.855
 6333SOL     OW19084   5.620   6.319   0.048
 6333SOL    HW119085   5.595   6.388   0.110
 6333SOL    HW219086   5.607   6.359  -0.038
 6334SOL     OW19087   5.072   6.103   1.809
 6334SOL    HW119088   4.999   6.065   1.857
 6334SOL    HW219089   5.086   6.042   1.736
 6335SOL     OW19090   5.826   6.091   0.557
 6335SOL    HW119091   5.869   6.013   0.523
 6335SOL    HW219092   5.892   6.132   0.614
 6336SOL     OW19093   5.666   6.235   1.574
 6336SOL    HW119094   5.623   6.321   1.581
 6336SOL    HW219095   5.759   6.256   1.564
 6337SOL     OW19096   6.120   6.424   0.758
 6337SOL    HW119097   6.039   6.435   0.809
 6337SOL    HW219098   6.189   6.455   0.817
 6338SOL     OW19099   6.216   5.472   1.101
 6338SOL    HW119100   6.219   5.386   1.058
 6338SOL    HW219101   6.215   5.535   1.028
 6339SOL     OW19102   5.493   6.322   1.868
 6339SOL    HW119103   5.416   6.364   1.830
 6339SOL    HW219104   5.462   6.234   1.892
 6340SOL     OW19105   5.008   5.742   1.564
 6340SOL    HW119106   4.925   5.704   1.535
 6340SOL    HW219107   5.038   5.794   1.489
 6341SOL     OW19108   6.128   5.036   0.675
 6341SOL    HW119109   6.084   5.121   0.673
 6341SOL    HW219110   6.216   5.054   0.640
 6342SOL     OW19111   6.852   6.169   0.252
 6342SOL    HW119112   6.888   6.127   0.173
 6342SOL    HW219113   6.782   6.110   0.280
 6343SOL     OW19114   5.867   6.638   1.873
 6343SOL    HW119115   5.779   6.602   1.888
 6343SOL    HW219116   5.923   6.589   1.933
 6344SOL     OW19117   5.705   5.722   2.196
 6344SOL    HW119118   5.720   5.697   2.288
 6344SOL    HW219119   5.633   5.665   2.168
 6345SOL     OW19120   5.958   6.236   1.088
 6345SOL    HW119121   6.010   6.223   1.009
 6345SOL    HW219122   5.882   6.285   1.058
 6346SOL     OW19123   5.070   5.783   1.270
 6346SOL    HW119124   5.076   5.816   1.181
 6346SOL    HW219125   4.979   5.755   1.279
 6347SOL     OW19126   6.660   5.939   0.624
 6347SOL    HW119127   6.718   6.014   0.638
 6347SOL    HW219128   6.694   5.871   0.681
 6348SOL     OW19129   6.260   6.266   1.281
 6348SOL    HW119130   6.257   6.341   1.341
 6348SOL    HW219131   6.173   6.265   1.240
 6349SOL     OW19132   5.423   6.007   1.019
 6349SOL    HW119133   5.489   5.972   1.079
 6349SOL    HW219134   5.369   6.065   1.074
 6350SOL     OW19135   5.335   6.388   2.230
 6350SOL    HW119136   5.427   6.383   2.207
 6350SOL    HW219137   5.301   6.461   2.177
 6351SOL     OW19138   5.616   6.019   1.426
 6351SOL    HW119139   5.692   6.074   1.410
 6351SOL    HW219140   5.567   6.065   1.494
 6352SOL     OW19141   6.197   5.093   1.764
 6352SOL    HW119142   6.111   5.102   1.722
 6352SOL    HW219143   6.194   5.007   1.805
 6353SOL     OW19144   5.341   6.283   1.409
 6353SOL    HW119145   5.392   6.323   1.480
 6353SOL    HW219146   5.256   6.327   1.414
 6354SOL     OW19147   6.213   5.200   2.454
 6354SOL    HW119148   6.211   5.142   2.530
 6354SOL    HW219149   6.297   5.246   2.461
 6355SOL     OW19150   5.896   6.523   0.363
 6355SOL    HW119151   5.824   6.468   0.393
 6355SOL    HW219152   5.932   6.561   0.444
 6356SOL     OW19153   5.221   5.012   0.808
 6356SOL    HW119154   5.159   5.026   0.880
 6356SOL    HW219155   5.169   4.969   0.740
 6357SOL     OW19156   6.208   5.374   1.788
 6357SOL    HW119157   6.174   5.392   1.700
 6357SOL    HW219158   6.233   5.282   1.786
 6358SOL     OW19159   5.474   6.209   0.834
 6358SOL    HW119160   5.486   6.151   0.760
 6358SOL    HW219161   5.536   6.177   0.900
 6359SOL     OW19162   5.562   5.049   1.802
 6359SOL    HW119163   5.600   5.017   1.720
 6359SOL    HW219164   5.468   5.046   1.787
 6360SOL     OW19165   5.103   5.589   2.023
 6360SOL    HW119166   5.096   5.561   1.931
 6360SOL    HW219167   5.191   5.627   2.030
 6361SOL     OW19168   6.521   5.954   0.381
 6361SOL    HW119169   6.541   6.047   0.371
 6361SOL    HW219170   6.574   5.926   0.455
 6362SOL     OW19171   5.249   5.069   1.137
 6362SOL    HW119172   5.270   5.141   1.077
 6362SOL    HW219173   5.172   5.027   1.097
 6363SOL     OW19174   5.228   5.521   0.604
 6363SOL    HW119175   5.292   5.503   0.673
 6363SOL    HW219176   5.265   5.596   0.556
 6364SOL     OW19177   6.247   5.983   1.740
 6364SOL    HW119178   6.333   5.954   1.771
 6364SOL    HW219179   6.267   6.045   1.670
 6365SOL     OW19180   5.386   6.436   1.173
 6365SOL    HW119181   5.333   6.366   1.212
 6365SOL    HW219182   5.467   6.436   1.224
 6366SOL     OW19183   5.714   6.341   1.031
 6366SOL    HW119184   5.650   6.332   1.102
 6366SOL    HW219185   5.699   6.264   0.976
 6367SOL     OW19186   6.335   5.160   1.115
 6367SOL    HW119187   6.425   5.180   1.140
 6367SOL    HW219188   6.328   5.193   1.025
 6368SOL     OW19189   5.530   5.052   1.092
 6368SOL    HW119190   5.460   5.017   1.148
 6368SOL    HW219191   5.513   5.013   1.006
 6369SOL     OW19192   6.009   5.855   2.482
 6369SOL    HW119193   5.981   5.935   2.527
 6369SOL    HW219194   5.959   5.785   2.524
 6370SOL     OW19195   5.835   6.260   1.856
 6370SOL    HW119196   5.776   6.329   1.826
 6370SOL    HW219197   5.923   6.295   1.838
 6371SOL     OW19198   5.497   5.310   2.088
 6371SOL    HW119199   5.443   5.231   2.086
 6371SOL    HW219200   5.565   5.291   2.153
 6372SOL     OW19201   5.870   5.839   0.512
 6372SOL    HW119202   5.837   5.853   0.423
 6372SOL    HW219203   5.936   5.771   0.502
 6373SOL     OW19204   5.624   5.798   1.302
 6373SOL    HW119205   5.535   5.778   1.272
 6373SOL    HW219206   5.614   5.878   1.353
 6374SOL     OW19207   5.361   6.671   0.464
 6374SOL    HW119208   5.451   6.703   0.459
 6374SOL    HW219209   5.361   6.610   0.538
 6375SOL     OW19210   5.851   6.134   1.308
 6375SOL    HW119211   5.928   6.122   1.362
 6375SOL    HW219212   5.882   6.183   1.232
 6376SOL     OW19213   5.885   5.180   1.713
 6376SOL    HW119214   5.832   5.227   1.777
 6376SOL    HW219215   5.872   5.229   1.632
 6377SOL     OW19216   5.912   6.502   0.936
 6377SOL    HW119217   5.827   6.485   0.976
 6377SOL    HW219218   5.967   6.533   1.008
 6378SOL     OW19219   5.968   5.852   2.207
 6378SOL    HW119220   5.872   5.857   2.202
 6378SOL    HW219221   5.987   5.860   2.301
 6379SOL     OW19222   5.149   5.260   0.575
 6379SOL    HW119223   5.205   5.337   0.583
 6379SOL    HW219224   5.210   5.187   0.568
 6380SOL     OW19225   6.568   6.301   1.672
 6380SOL    HW119226   6.515   6.256   1.737
 6380SOL    HW219227   6.645   6.246   1.661
 6381SOL     OW19228   5.625   6.194   2.214
 6381SOL    HW119229   5.587   6.140   2.284
 6381SOL    HW219230   5.620   6.139   2.136
 6382SOL     OW19231   5.211   5.836   0.527
 6382SOL    HW119232   5.239   5.853   0.617
 6382SOL    HW219233   5.278   5.778   0.492
 6383SOL     OW19234   6.449   6.405   1.094
 6383SOL    HW119235   6.389   6.343   1.136
 6383SOL    HW219236   6.522   6.350   1.063
 6384SOL     OW19237   5.015   6.140   2.301
 6384SOL    HW119238   5.079   6.143   2.230
 6384SOL    HW219239   4.949   6.078   2.271
 6385SOL     OW19240   5.227   6.505   2.000
 6385SOL    HW119241   5.231   6.463   1.914
 6385SOL    HW219242   5.176   6.584   1.986
 6386SOL     OW19243   6.308   6.442   1.469
 6386SOL    HW119244   6.241   6.510   1.481
 6386SOL    HW219245   6.343   6.429   1.557
 6387SOL     OW19246   6.483   6.344   2.137
 6387SOL    HW119247   6.531   6.421   2.166
 6387SOL    HW219248   6.469   6.293   2.217
 6388SOL     OW19249   6.280   6.672   2.004
 6388SOL    HW119250   6.234   6.749   1.971
 6388SOL    HW219251   6.361   6.668   1.953
 6389SOL     OW19252   6.236   5.370   1.506
 6389SOL    HW119253   6.160   5.313   1.488
 6389SOL    HW219254   6.234   5.434   1.435
 6390SOL     OW19255   5.045   6.086   0.832
 6390SOL    HW119256   5.115   6.113   0.890
 6390SOL    HW219257   5.072   6.117   0.745
 6391SOL     OW19258   5.597   6.253   1.266
 6391SOL    HW119259   5.670   6.216   1.316
 6391SOL    HW219260   5.522   6.197   1.287
 6392SOL     OW19261   6.018   5.600   1.834
 6392SOL    HW119262   6.025   5.657   1.758
 6392SOL    HW219263   6.052   5.516   1.803
 6393SOL     OW19264   5.414   5.537   1.134
 6393SOL    HW119265   5.481   5.562   1.070
 6393SOL    HW219266   5.332   5.567   1.095
 6394SOL     OW19267   5.689   6.312   0.428
 6394SOL    HW119268   5.733   6.237   0.467
 6394SOL    HW219269   5.658   6.363   0.503
 6395SOL     OW19270   6.073   6.514   2.020
 6395SOL    HW119271   6.143   6.577   2.009
 6395SOL    HW219272   6.103   6.455   2.090
 6396SOL     OW19273   6.118   5.678   0.591
 6396SOL    HW119274   6.174   5.752   0.568
 6396SOL    HW219275   6.143   5.609   0.529
 6397SOL     OW19276   6.166   5.667   0.242
 6397SOL    HW119277   6.072   5.660   0.259
 6397SOL    HW219278   6.196   5.737   0.300
 6398SOL     OW19279   6.122   5.989   1.117
 6398SOL    HW119280   6.082   6.067   1.155
 6398SOL    HW219281   6.093   5.917   1.173
 6399SOL     OW19282   6.020   5.243   2.289
 6399SOL    HW119283   6.060   5.310   2.233
 6399SOL    HW219284   6.089   5.217   2.349
 6400SOL     OW19285   5.135   5.672   0.233
 6400SOL    HW119286   5.055   5.694   0.185
 6400SOL    HW219287   5.189   5.751   0.226
 6401SOL     OW19288   5.073   6.286   1.157
 6401SOL    HW119289   5.114   6.302   1.071
 6401SOL    HW219290   5.108   6.201   1.184
 6402SOL     OW19291   6.109   6.342   1.793
 6402SOL    HW119292   6.188   6.296   1.820
 6402SOL    HW219293   6.107   6.420   1.848
 6403SOL     OW19294   6.382   5.951   1.015
 6403SOL    HW119295   6.381   6.033   0.966
 6403SOL    HW219296   6.291   5.940   1.044
 6404SOL     OW19297   5.262   5.661   1.401
 6404SOL    HW119298   5.205   5.709   1.342
 6404SOL    HW219299   5.302   5.593   1.346
 6405SOL     OW19300   6.354   5.214   0.626
 6405SOL    HW119301   6.375   5.271   0.551
 6405SOL    HW219302   6.410   5.138   0.615
 6406SOL     OW19303   5.373   5.518   0.162
 6406SOL    HW119304   5.363   5.452   0.231
 6406SOL    HW219305   5.296   5.574   0.173
 6407SOL     OW19306   6.055   6.285   2.260
 6407SOL    HW119307   5.968   6.324   2.250
 6407SOL    HW219308   6.056   6.211   2.200
 6408SOL     OW19309   6.264   5.862   0.424
 6408SOL    HW119310   6.355   5.884   0.407
 6408SOL    HW219311   6.214   5.936   0.389
 6409SOL     OW19312   6.045   5.770   1.322
 6409SOL    HW119313   5.996   5.790   1.402
 6409SOL    HW219314   6.137   5.782   1.347
 6410SOL     OW19315   5.280   5.288   0.995
 6410SOL    HW119316   5.220   5.359   1.018
 6410SOL    HW219317   5.328   5.321   0.919
 6411SOL     OW19318   5.251   5.378   1.306
 6411SOL    HW119319   5.271   5.389   1.213
 6411SOL    HW219320   5.336   5.367   1.348
 6412SOL     OW19321   6.393   5.695   2.268
 6412SOL    HW119322   6.321   5.693   2.205
 6412SOL    HW219323   6.356   5.657   2.348
 6413SOL     OW19324   5.020   4.985   1.002
 6413SOL    HW119325   5.026   4.891   0.981
 6413SOL    HW219326   4.928   5.006   0.987
 6414SOL     OW19327   6.277   5.519   0.028
 6414SOL    HW119328   6.241   5.581   0.091
 6414SOL    HW219329   6.358   5.488   0.067
 6415SOL     OW19330   5.870   5.347   1.488
 6415SOL    HW119331   5.830   5.430   1.465
 6415SOL    HW219332   5.935   5.331   1.419
 6416SOL     OW19333   5.909   5.857   0.950
 6416SOL    HW119334   5.905   5.770   0.991
 6416SOL    HW219335   5.954   5.842   0.867
 6417SOL     OW19336   5.704   6.075   1.030
 6417SOL    HW119337   5.760   6.011   0.985
 6417SOL    HW219338   5.738   6.078   1.119
 6418SOL     OW19339   6.127   5.635   2.076
 6418SOL    HW119340   6.084   5.711   2.114
 6418SOL    HW219341   6.075   5.614   1.999
 6419SOL     OW19342   6.019   6.082   0.856
 6419SOL    HW119343   6.114   6.092   0.851
 6419SOL    HW219344   6.006   6.008   0.914
 6420SOL     OW19345   5.400   5.719   2.379
 6420SOL    HW119346   5.331   5.750   2.320
 6420SOL    HW219347   5.377   5.628   2.397
 6421SOL     OW19348   5.982   5.383   0.877
 6421SOL    HW119349   5.921   5.339   0.936
 6421SOL    HW219350   5.963   5.346   0.791
 6422SOL     OW19351   5.196   6.037   1.244
 6422SOL    HW119352   5.166   5.947   1.260
 6422SOL    HW219353   5.199   6.077   1.331
 6423SOL     OW19354   5.888   5.670   0.284
 6423SOL    HW119355   5.825   5.743   0.287
 6423SOL    HW219356   5.852   5.610   0.219
 6424SOL     OW19357   5.665   5.678   1.746
 6424SOL    HW119358   5.722   5.633   1.809
 6424SOL    HW219359   5.674   5.771   1.768
 6425SOL     OW19360   6.069   6.092   2.053
 6425SOL    HW119361   6.057   6.099   1.958
 6425SOL    HW219362   6.023   6.011   2.077
 6426SOL     OW19363   6.310   6.557   3.375
 6426SOL    HW119364   6.373   6.527   3.440
 6426SOL    HW219365   6.261   6.626   3.420
 6427SOL     OW19366   6.845   6.488   4.014
 6427SOL    HW119367   6.894   6.415   4.050
 6427SOL    HW219368   6.788   6.517   4.086
 6428SOL     OW19369   6.371   6.649   3.675
 6428SOL    HW119370   6.418   6.661   3.758
 6428SOL    HW219371   6.385   6.557   3.653
 6429SOL     OW19372   5.361   5.908   3.264
 6429SOL    HW119373   5.429   5.959   3.221
 6429SOL    HW219374   5.352   5.950   3.350
 6430SOL     OW19375   5.677   6.477   3.159
 6430SOL    HW119376   5.647   6.514   3.242
 6430SOL    HW219377   5.772   6.472   3.168
 6431SOL     OW19378   5.538   5.701   3.265
 6431SOL    HW119379   5.591   5.718   3.343
 6431SOL    HW219380   5.479   5.776   3.260
 6432SOL     OW19381   5.108   6.374   3.220
 6432SOL    HW119382   5.047   6.414   3.283
 6432SOL    HW219383   5.051   6.327   3.159
 6433SOL     OW19384   6.167   5.384   4.628
 6433SOL    HW119385   6.172   5.344   4.542
 6433SOL    HW219386   6.176   5.478   4.612
 6434SOL     OW19387   5.955   6.812   2.508
 6434SOL    HW119388   5.976   6.740   2.568
 6434SOL    HW219389   5.939   6.769   2.424
 6435SOL     OW19390   5.852   5.982   4.367
 6435SOL    HW119391   5.793   5.953   4.436
 6435SOL    HW219392   5.839   6.077   4.361
 6436SOL     OW19393   5.799   5.420   2.986
 6436SOL    HW119394   5.837   5.428   2.899
 6436SOL    HW219395   5.755   5.503   3.001
 6437SOL     OW19396   5.410   6.424   3.069
 6437SOL    HW119397   5.488   6.438   3.122
 6437SOL    HW219398   5.381   6.335   3.091
 6438SOL     OW19399   5.240   6.132   3.050
 6438SOL    HW119400   5.154   6.160   3.018
 6438SOL    HW219401   5.251   6.043   3.016
 6439SOL     OW19402   5.037   5.463   4.279
 6439SOL    HW119403   5.053   5.436   4.189
 6439SOL    HW219404   4.952   5.425   4.301
 6440SOL     OW19405   6.251   6.417   3.014
 6440SOL    HW119406   6.209   6.414   3.100
 6440SOL    HW219407   6.313   6.490   3.020
 6441SOL     OW19408   5.832   6.397   4.681
 6441SOL    HW119409   5.809   6.448   4.604
 6441SOL    HW219410   5.787   6.314   4.669
 6442SOL     OW19411   6.049   5.080   3.645
 6442SOL    HW119412   6.133   5.092   3.601
 6442SOL    HW219413   6.062   5.007   3.704
 6443SOL     OW19414   6.181   6.427   2.509
 6443SOL    HW119415   6.153   6.343   2.473
 6443SOL    HW219416   6.218   6.474   2.435
 6444SOL     OW19417   5.527   5.467   4.134
 6444SOL    HW119418   5.541   5.556   4.168
 6444SOL    HW219419   5.571   5.410   4.197
 6445SOL     OW19420   6.256   5.273   3.375
 6445SOL    HW119421   6.274   5.249   3.284
 6445SOL    HW219422   6.181   5.332   3.370
 6446SOL     OW19423   5.220   5.223   4.236
 6446SOL    HW119424   5.245   5.216   4.329
 6446SOL    HW219425   5.228   5.316   4.216
 6447SOL     OW19426   5.623   5.310   4.341
 6447SOL    HW119427   5.580   5.309   4.427
 6447SOL    HW219428   5.620   5.219   4.312
 6448SOL     OW19429   5.346   6.099   4.406
 6448SOL    HW119430   5.288   6.064   4.338
 6448SOL    HW219431   5.415   6.033   4.414
 6449SOL     OW19432   5.462   5.251   3.974
 6449SOL    HW119433   5.483   5.193   4.046
 6449SOL    HW219434   5.484   5.339   4.006
 6450SOL     OW19435   5.717   5.577   3.921
 6450SOL    HW119436   5.698   5.656   3.871
 6450SOL    HW219437   5.643   5.569   3.983
 6451SOL     OW19438   5.603   5.231   3.007
 6451SOL    HW119439   5.680   5.286   3.016
 6451SOL    HW219440   5.585   5.200   3.095
 6452SOL     OW19441   5.042   5.393   4.677
 6452SOL    HW119442   5.035   5.308   4.635
 6452SOL    HW219443   5.068   5.453   4.606
 6453SOL     OW19444   6.372   6.232   4.388
 6453SOL    HW119445   6.409   6.281   4.461
 6453SOL    HW219446   6.389   6.140   4.410
 6454SOL     OW19447   6.306   5.050   2.674
 6454SOL    HW119448   6.338   5.056   2.763
 6454SOL    HW219449   6.363   4.985   2.632
 6455SOL     OW19450   5.583   5.992   4.247
 6455SOL    HW119451   5.645   6.039   4.191
 6455SOL    HW219452   5.498   6.005   4.204
 6456SOL     OW19453   6.595   6.223   2.850
 6456SOL    HW119454   6.512   6.266   2.830
 6456SOL    HW219455   6.658   6.263   2.790
 6457SOL     OW19456   5.400   5.529   4.430
 6457SOL    HW119457   5.402   5.510   4.336
 6457SOL    HW219458   5.430   5.448   4.472
 6458SOL     OW19459   6.085   6.083   3.947
 6458SOL    HW119460   6.164   6.135   3.962
 6458SOL    HW219461   6.107   5.996   3.980
 6459SOL     OW19462   5.876   6.479   2.519
 6459SOL    HW119463   5.916   6.400   2.556
 6459SOL    HW219464   5.933   6.501   2.445
 6460SOL     OW19465   5.588   5.334   3.624
 6460SOL    HW119466   5.550   5.246   3.622
 6460SOL    HW219467   5.515   5.391   3.647
 6461SOL     OW19468   5.485   5.447   3.215
 6461SOL    HW119469   5.561   5.389   3.213
 6461SOL    HW219470   5.513   5.521   3.268
 6462SOL     OW19471   6.012   6.141   2.508
 6462SOL    HW119472   6.023   6.131   2.413
 6462SOL    HW219473   5.920   6.120   2.524
 6463SOL     OW19474   6.730   5.222   2.639
 6463SOL    HW119475   6.794   5.244   2.707
 6463SOL    HW219476   6.753   5.134   2.611
 6464SOL     OW19477   6.148   5.587   3.343
 6464SOL    HW119478   6.126   5.620   3.256
 6464SOL    HW219479   6.093   5.509   3.354
 6465SOL     OW19480   6.293   5.881   3.888
 6465SOL    HW119481   6.340   5.810   3.932
 6465SOL    HW219482   6.342   5.960   3.912
 6466SOL     OW19483   5.062   6.375   3.944
 6466SOL    HW119484   4.996   6.354   4.010
 6466SOL    HW219485   5.037   6.462   3.912
 6467SOL     OW19486   5.283   5.693   4.173
 6467SOL    HW119487   5.190   5.676   4.160
 6467SOL    HW219488   5.323   5.674   4.088
 6468SOL     OW19489   4.990   5.564   2.918
 6468SOL    HW119490   5.037   5.492   2.960
 6468SOL    HW219491   5.052   5.599   2.854
 6469SOL     OW19492   5.027   5.859   3.474
 6469SOL    HW119493   4.949   5.810   3.447
 6469SOL    HW219494   5.021   5.941   3.425
 6470SOL     OW19495   5.479   5.994   2.845
 6470SOL    HW119496   5.436   6.077   2.823
 6470SOL    HW219497   5.424   5.927   2.804
 6471SOL     OW19498   6.024   5.853   4.180
 6471SOL    HW119499   6.104   5.906   4.186
 6471SOL    HW219500   5.962   5.897   4.237
 6472SOL     OW19501   5.315   5.960   4.150
 6472SOL    HW119502   5.242   6.007   4.111
 6472SOL    HW219503   5.321   5.879   4.100
 6473SOL     OW19504   5.126   5.072   3.887
 6473SOL    HW119505   5.139   5.067   3.792
 6473SOL    HW219506   5.202   5.120   3.919
 6474SOL     OW19507   5.950   6.288   4.081
 6474SOL    HW119508   6.007   6.324   4.148
 6474SOL    HW219509   5.991   6.206   4.055
 6475SOL     OW19510   5.821   5.213   3.502
 6475SOL    HW119511   5.878   5.174   3.568
 6475SOL    HW219512   5.741   5.236   3.550
 6476SOL     OW19513   5.669   5.655   3.508
 6476SOL    HW119514   5.726   5.579   3.495
 6476SOL    HW219515   5.695   5.691   3.593
 6477SOL     OW19516   5.049   6.191   2.559
 6477SOL    HW119517   5.026   6.178   2.467
 6477SOL    HW219518   5.137   6.228   2.557
 6478SOL     OW19519   4.991   5.156   4.544
 6478SOL    HW119520   5.005   5.068   4.580
 6478SOL    HW219521   4.979   5.142   4.450
 6479SOL     OW19522   5.640   5.673   3.008
 6479SOL    HW119523   5.690   5.754   3.012
 6479SOL    HW219524   5.619   5.653   3.099
 6480SOL     OW19525   5.101   4.977   2.768
 6480SOL    HW119526   5.098   4.984   2.672
 6480SOL    HW219527   5.189   4.942   2.786
 6481SOL     OW19528   5.241   5.703   3.463
 6481SOL    HW119529   5.168   5.765   3.469
 6481SOL    HW219530   5.295   5.736   3.391
 6482SOL     OW19531   6.090   5.309   2.876
 6482SOL    HW119532   6.166   5.313   2.819
 6482SOL    HW219533   6.015   5.306   2.816
 6483SOL     OW19534   5.076   6.092   3.973
 6483SOL    HW119535   5.082   6.184   3.947
 6483SOL    HW219536   4.983   6.073   3.973
 6484SOL     OW19537   5.094   5.445   3.549
 6484SOL    HW119538   5.065   5.487   3.469
 6484SOL    HW219539   5.015   5.432   3.600
 6485SOL     OW19540   5.641   5.950   4.555
 6485SOL    HW119541   5.667   5.873   4.604
 6485SOL    HW219542   5.573   5.919   4.495
 6486SOL     OW19543   6.455   6.076   3.748
 6486SOL    HW119544   6.432   5.996   3.702
 6486SOL    HW219545   6.373   6.126   3.751
 6487SOL     OW19546   5.422   6.264   2.827
 6487SOL    HW119547   5.513   6.269   2.855
 6487SOL    HW219548   5.382   6.344   2.863
 6488SOL     OW19549   6.386   5.555   4.335
 6488SOL    HW119550   6.337   5.480   4.302
 6488SOL    HW219551   6.338   5.584   4.412
 6489SOL     OW19552   6.778   5.707   3.263
 6489SOL    HW119553   6.721   5.722   3.339
 6489SOL    HW219554   6.744   5.627   3.224
 6490SOL     OW19555   5.016   5.085   4.136
 6490SOL    HW119556   5.088   5.143   4.158
 6490SOL    HW219557   5.032   5.060   4.045
 6491SOL     OW19558   5.904   5.604   3.640
 6491SOL    HW119559   5.905   5.662   3.716
 6491SOL    HW219560   5.990   5.561   3.642
 6492SOL     OW19561   6.280   6.213   3.381
 6492SOL    HW119562   6.372   6.228   3.358
 6492SOL    HW219563   6.231   6.250   3.307
 6493SOL     OW19564   6.262   6.739   2.931
 6493SOL    HW119565   6.280   6.826   2.897
 6493SOL    HW219566   6.180   6.713   2.889
 6494SOL     OW19567   5.215   6.330   4.248
 6494SOL    HW119568   5.181   6.243   4.268
 6494SOL    HW219569   5.158   6.362   4.178
 6495SOL     OW19570   6.021   6.526   3.961
 6495SOL    HW119571   5.983   6.438   3.952
 6495SOL    HW219572   5.960   6.583   3.914
 6496SOL     OW19573   5.577   6.040   3.117
 6496SOL    HW119574   5.550   6.025   3.027
 6496SOL    HW219575   5.672   6.029   3.116
 6497SOL     OW19576   5.391   5.677   2.921
 6497SOL    HW119577   5.473   5.674   2.972
 6497SOL    HW219578   5.419   5.698   2.832
 6498SOL     OW19579   5.656   5.074   2.782
 6498SOL    HW119580   5.699   5.109   2.705
 6498SOL    HW219581   5.645   5.149   2.840
 6499SOL     OW19582   5.654   6.521   4.440
 6499SOL    HW119583   5.607   6.438   4.431
 6499SOL    HW219584   5.610   6.566   4.512
 6500SOL     OW19585   4.990   5.527   3.310
 6500SOL    HW119586   5.020   5.599   3.255
 6500SOL    HW219587   5.005   5.448   3.257
 6501SOL     OW19588   6.364   6.701   4.200
 6501SOL    HW119589   6.378   6.788   4.239
 6501SOL    HW219590   6.311   6.719   4.122
 6502SOL     OW19591   5.103   5.463   4.038
 6502SOL    HW119592   5.164   5.518   3.990
 6502SOL    HW219593   5.071   5.399   3.974
 6503SOL     OW19594   6.377   5.542   3.790
 6503SOL    HW119595   6.459   5.541   3.740
 6503SOL    HW219596   6.308   5.531   3.724
 6504SOL     OW19597   6.081   6.622   2.684
 6504SOL    HW119598   6.109   6.546   2.634
 6504SOL    HW219599   6.021   6.587   2.750
 6505SOL     OW19600   5.179   6.215   4.603
 6505SOL    HW119601   5.233   6.282   4.645
 6505SOL    HW219602   5.219   6.204   4.516
 6506SOL     OW19603   5.705   5.121   3.819
 6506SOL    HW119604   5.691   5.209   3.854
 6506SOL    HW219605   5.634   5.108   3.756
 6507SOL     OW19606   6.387   5.365   2.850
 6507SOL    HW119607   6.411   5.445   2.895
 6507SOL    HW219608   6.452   5.356   2.780
 6508SOL     OW19609   6.348   6.148   4.043
 6508SOL    HW119610   6.419   6.087   4.063
 6508SOL    HW219611   6.391   6.222   4.001
 6509SOL     OW19612   4.992   6.806   3.612
 6509SOL    HW119613   4.957   6.836   3.528
 6509SOL    HW219614   5.061   6.745   3.589
 6510SOL     OW19615   6.067   5.316   3.776
 6510SOL    HW119616   6.050   5.232   3.733
 6510SOL    HW219617   6.111   5.369   3.710
 6511SOL     OW19618   5.387   5.799   4.434
 6511SOL    HW119619   5.401   5.705   4.437
 6511SOL    HW219620   5.354   5.815   4.345
 6512SOL     OW19621   5.234   6.278   3.426
 6512SOL    HW119622   5.325   6.249   3.421
 6512SOL    HW219623   5.216   6.316   3.339
 6513SOL     OW19624   6.006   5.283   3.132
 6513SOL    HW119625   6.069   5.299   3.062
 6513SOL    HW219626   5.922   5.311   3.097
 6514SOL     OW19627   5.642   5.199   3.270
 6514SOL    HW119628   5.614   5.107   3.274
 6514SOL    HW219629   5.705   5.208   3.342
 6515SOL     OW19630   5.620   6.319   2.535
 6515SOL    HW119631   5.595   6.388   2.597
 6515SOL    HW219632   5.607   6.359   2.449
 6516SOL     OW19633   5.072   6.103   4.296
 6516SOL    HW119634   4.999   6.065   4.344
 6516SOL    HW219635   5.086   6.042   4.223
 6517SOL     OW19636   5.826   6.091   3.044
 6517SOL    HW119637   5.869   6.013   3.010
 6517SOL    HW219638   5.892   6.132   3.101
 6518SOL     OW19639   5.666   6.235   4.061
 6518SOL    HW119640   5.623   6.321   4.068
 6518SOL    HW219641   5.759   6.256   4.051
 6519SOL     OW19642   6.120   6.424   3.245
 6519SOL    HW119643   6.039   6.435   3.296
 6519SOL    HW219644   6.189   6.455   3.304
 6520SOL     OW19645   6.216   5.472   3.588
 6520SOL    HW119646   6.219   5.386   3.545
 6520SOL    HW219647   6.215   5.535   3.515
 6521SOL     OW19648   5.525   5.013   4.821
 6521SOL    HW119649   5.515   4.933   4.769
 6521SOL    HW219650   5.603   5.055   4.785
 6522SOL     OW19651   5.493   6.322   4.355
 6522SOL    HW119652   5.416   6.364   4.317
 6522SOL    HW219653   5.462   6.234   4.379
 6523SOL     OW19654   5.008   5.742   4.051
 6523SOL    HW119655   4.925   5.704   4.022
 6523SOL    HW219656   5.038   5.794   3.976
 6524SOL     OW19657   6.128   5.036   3.162
 6524SOL    HW119658   6.084   5.121   3.160
 6524SOL    HW219659   6.216   5.054   3.127
 6525SOL     OW19660   6.852   6.169   2.739
 6525SOL    HW119661   6.888   6.127   2.660
 6525SOL    HW219662   6.782   6.110   2.767
 6526SOL     OW19663   5.867   6.638   4.360
 6526SOL    HW119664   5.779   6.602   4.375
 6526SOL    HW219665   5.923   6.589   4.420
 6527SOL     OW19666   5.958   6.236   3.575
 6527SOL    HW119667   6.010   6.223   3.496
 6527SOL    HW219668   5.882   6.285   3.545
 6528SOL     OW19669   5.070   5.783   3.757
 6528SOL    HW119670   5.076   5.816   3.668
 6528SOL    HW219671   4.979   5.755   3.766
 6529SOL     OW19672   6.660   5.939   3.111
 6529SOL    HW119673   6.718   6.014   3.125
 6529SOL    HW219674   6.694   5.871   3.168
 6530SOL     OW19675   6.260   6.266   3.768
 6530SOL    HW119676   6.257   6.341   3.828
 6530SOL    HW219677   6.173   6.265   3.727
 6531SOL     OW19678   5.423   6.007   3.506
 6531SOL    HW119679   5.489   5.972   3.566
 6531SOL    HW219680   5.369   6.065   3.561
 6532SOL     OW19681   5.616   6.019   3.913
 6532SOL    HW119682   5.692   6.074   3.897
 6532SOL    HW219683   5.567   6.065   3.981
 6533SOL     OW19684   6.197   5.093   4.251
 6533SOL    HW119685   6.111   5.102   4.209
 6533SOL    HW219686   6.194   5.007   4.292
 6534SOL     OW19687   6.321   6.309   2.762
 6534SOL    HW119688   6.265   6.362   2.705
 6534SOL    HW219689   6.293   6.332   2.850
 6535SOL     OW19690   5.341   6.283   3.896
 6535SOL    HW119691   5.392   6.323   3.967
 6535SOL    HW219692   5.256   6.327   3.901
 6536SOL     OW19693   5.896   6.523   2.850
 6536SOL    HW119694   5.824   6.468   2.880
 6536SOL    HW219695   5.932   6.561   2.931
 6537SOL     OW19696   5.719   5.895   2.785
 6537SOL    HW119697   5.631   5.926   2.803
 6537SOL    HW219698   5.751   5.952   2.715
 6538SOL     OW19699   5.221   5.012   3.295
 6538SOL    HW119700   5.159   5.026   3.367
 6538SOL    HW219701   5.169   4.969   3.227
 6539SOL     OW19702   6.208   5.374   4.275
 6539SOL    HW119703   6.174   5.392   4.187
 6539SOL    HW219704   6.233   5.282   4.273
 6540SOL     OW19705   5.474   6.209   3.321
 6540SOL    HW119706   5.486   6.151   3.247
 6540SOL    HW219707   5.536   6.177   3.387
 6541SOL     OW19708   5.562   5.049   4.289
 6541SOL    HW119709   5.600   5.017   4.207
 6541SOL    HW219710   5.468   5.046   4.274
 6542SOL     OW19711   5.103   5.589   4.510
 6542SOL    HW119712   5.096   5.561   4.418
 6542SOL    HW219713   5.191   5.627   4.517
 6543SOL     OW19714   6.521   5.954   2.868
 6543SOL    HW119715   6.541   6.047   2.858
 6543SOL    HW219716   6.574   5.926   2.942
 6544SOL     OW19717   5.249   5.069   3.624
 6544SOL    HW119718   5.270   5.141   3.564
 6544SOL    HW219719   5.172   5.027   3.584
 6545SOL     OW19720   5.228   5.521   3.091
 6545SOL    HW119721   5.292   5.503   3.160
 6545SOL    HW219722   5.265   5.596   3.043
 6546SOL     OW19723   5.376   5.821   2.683
 6546SOL    HW119724   5.428   5.778   2.615
 6546SOL    HW219725   5.303   5.860   2.635
 6547SOL     OW19726   6.247   5.983   4.227
 6547SOL    HW119727   6.333   5.954   4.258
 6547SOL    HW219728   6.267   6.045   4.157
 6548SOL     OW19729   5.386   6.436   3.660
 6548SOL    HW119730   5.333   6.366   3.699
 6548SOL    HW219731   5.467   6.436   3.711
 6549SOL     OW19732   5.714   6.341   3.518
 6549SOL    HW119733   5.650   6.332   3.589
 6549SOL    HW219734   5.699   6.264   3.463
 6550SOL     OW19735   5.298   6.282   2.574
 6550SOL    HW119736   5.359   6.257   2.644
 6550SOL    HW219737   5.309   6.377   2.566
 6551SOL     OW19738   5.382   5.301   2.839
 6551SOL    HW119739   5.388   5.211   2.809
 6551SOL    HW219740   5.458   5.311   2.897
 6552SOL     OW19741   6.335   5.160   3.602
 6552SOL    HW119742   6.425   5.180   3.627
 6552SOL    HW219743   6.328   5.193   3.512
 6553SOL     OW19744   5.530   5.052   3.579
 6553SOL    HW119745   5.460   5.017   3.635
 6553SOL    HW219746   5.513   5.013   3.493
 6554SOL     OW19747   5.835   6.260   4.343
 6554SOL    HW119748   5.776   6.329   4.313
 6554SOL    HW219749   5.923   6.295   4.325
 6555SOL     OW19750   5.497   5.310   4.575
 6555SOL    HW119751   5.443   5.231   4.573
 6555SOL    HW219752   5.565   5.291   4.640
 6556SOL     OW19753   5.870   5.839   2.999
 6556SOL    HW119754   5.837   5.853   2.910
 6556SOL    HW219755   5.936   5.771   2.989
 6557SOL     OW19756   5.624   5.798   3.789
 6557SOL    HW119757   5.535   5.778   3.759
 6557SOL    HW219758   5.614   5.878   3.840
 6558SOL     OW19759   5.361   6.671   2.951
 6558SOL    HW119760   5.451   6.703   2.946
 6558SOL    HW219761   5.361   6.610   3.025
 6559SOL     OW19762   5.851   6.134   3.795
 6559SOL    HW119763   5.928   6.122   3.849
 6559SOL    HW219764   5.882   6.183   3.719
 6560SOL     OW19765   5.885   5.180   4.200
 6560SOL    HW119766   5.832   5.227   4.264
 6560SOL    HW219767   5.872   5.229   4.119
 6561SOL     OW19768   5.912   6.502   3.423
 6561SOL    HW119769   5.827   6.485   3.463
 6561SOL    HW219770   5.967   6.533   3.495
 6562SOL     OW19771   5.149   5.260   3.062
 6562SOL    HW119772   5.205   5.337   3.070
 6562SOL    HW219773   5.210   5.187   3.055
 6563SOL     OW19774   6.568   6.301   4.159
 6563SOL    HW119775   6.515   6.256   4.224
 6563SOL    HW219776   6.645   6.246   4.148
 6564SOL     OW19777   5.211   5.836   3.014
 6564SOL    HW119778   5.239   5.853   3.104
 6564SOL    HW219779   5.278   5.778   2.979
 6565SOL     OW19780   6.449   6.405   3.581
 6565SOL    HW119781   6.389   6.343   3.623
 6565SOL    HW219782   6.522   6.350   3.550
 6566SOL     OW19783   5.227   6.505   4.487
 6566SOL    HW119784   5.231   6.463   4.401
 6566SOL    HW219785   5.176   6.584   4.473
 6567SOL     OW19786   6.308   6.442   3.956
 6567SOL    HW119787   6.241   6.510   3.968
 6567SOL    HW219788   6.343   6.429   4.044
 6568SOL     OW19789   6.483   6.344   4.624
 6568SOL    HW119790   6.531   6.421   4.653
 6568SOL    HW219791   6.469   6.293   4.704
 6569SOL     OW19792   6.280   6.672   4.491
 6569SOL    HW119793   6.234   6.749   4.458
 6569SOL    HW219794   6.361   6.668   4.440
 6570SOL     OW19795   6.236   5.370   3.993
 6570SOL    HW119796   6.160   5.313   3.975
 6570SOL    HW219797   6.234   5.434   3.922
 6571SOL     OW19798   5.045   6.086   3.319
 6571SOL    HW119799   5.115   6.113   3.377
 6571SOL    HW219800   5.072   6.117   3.232
 6572SOL     OW19801   5.597   6.253   3.753
 6572SOL    HW119802   5.670   6.216   3.803
 6572SOL    HW219803   5.522   6.197   3.774
 6573SOL     OW19804   6.018   5.600   4.321
 6573SOL    HW119805   6.025   5.657   4.245
 6573SOL    HW219806   6.052   5.516   4.290
 6574SOL     OW19807   5.414   5.537   3.621
 6574SOL    HW119808   5.481   5.562   3.557
 6574SOL    HW219809   5.332   5.567   3.582
 6575SOL     OW19810   5.689   6.312   2.915
 6575SOL    HW119811   5.733   6.237   2.954
 6575SOL    HW219812   5.658   6.363   2.990
 6576SOL     OW19813   6.073   6.514   4.507
 6576SOL    HW119814   6.143   6.577   4.496
 6576SOL    HW219815   6.103   6.455   4.577
 6577SOL     OW19816   6.290   5.921   2.515
 6577SOL    HW119817   6.227   5.861   2.475
 6577SOL    HW219818   6.242   5.962   2.587
 6578SOL     OW19819   6.118   5.678   3.078
 6578SOL    HW119820   6.174   5.752   3.055
 6578SOL    HW219821   6.143   5.609   3.016
 6579SOL     OW19822   6.166   5.667   2.729
 6579SOL    HW119823   6.072   5.660   2.746
 6579SOL    HW219824   6.196   5.737   2.787
 6580SOL     OW19825   6.122   5.989   3.604
 6580SOL    HW119826   6.082   6.067   3.642
 6580SOL    HW219827   6.093   5.917   3.660
 6581SOL     OW19828   5.135   5.672   2.720
 6581SOL    HW119829   5.055   5.694   2.672
 6581SOL    HW219830   5.189   5.751   2.713
 6582SOL     OW19831   5.073   6.286   3.644
 6582SOL    HW119832   5.114   6.302   3.558
 6582SOL    HW219833   5.108   6.201   3.671
 6583SOL     OW19834   6.109   6.342   4.280
 6583SOL    HW119835   6.188   6.296   4.307
 6583SOL    HW219836   6.107   6.420   4.335
 6584SOL     OW19837   6.382   5.951   3.502
 6584SOL    HW119838   6.381   6.033   3.453
 6584SOL    HW219839   6.291   5.940   3.531
 6585SOL     OW19840   5.262   5.661   3.888
 6585SOL    HW119841   5.205   5.709   3.829
 6585SOL    HW219842   5.302   5.593   3.833
 6586SOL     OW19843   6.354   5.214   3.113
 6586SOL    HW119844   6.375   5.271   3.038
 6586SOL    HW219845   6.410   5.138   3.102
 6587SOL     OW19846   5.373   5.518   2.649
 6587SOL    HW119847   5.363   5.452   2.718
 6587SOL    HW219848   5.296   5.574   2.660
 6588SOL     OW19849   6.264   5.862   2.911
 6588SOL    HW119850   6.355   5.884   2.894
 6588SOL    HW219851   6.214   5.936   2.876
 6589SOL     OW19852   5.901   5.341   2.700
 6589SOL    HW119853   5.943   5.406   2.644
 6589SOL    HW219854   5.848   5.288   2.640
 6590SOL     OW19855   6.045   5.770   3.809
 6590SOL    HW119856   5.996   5.790   3.889
 6590SOL    HW219857   6.137   5.782   3.834
 6591SOL     OW19858   5.280   5.288   3.482
 6591SOL    HW119859   5.220   5.359   3.505
 6591SOL    HW219860   5.328   5.321   3.406
 6592SOL     OW19861   5.251   5.378   3.793
 6592SOL    HW119862   5.271   5.389   3.700
 6592SOL    HW219863   5.336   5.367   3.835
 6593SOL     OW19864   6.393   5.695   4.755
 6593SOL    HW119865   6.321   5.693   4.692
 6593SOL    HW219866   6.356   5.657   4.835
 6594SOL     OW19867   5.755   6.071   2.575
 6594SOL    HW119868   5.718   6.160   2.579
 6594SOL    HW219869   5.684   6.017   2.542
 6595SOL     OW19870   5.158   5.945   2.598
 6595SOL    HW119871   5.140   6.028   2.640
 6595SOL    HW219872   5.098   5.941   2.524
 6596SOL     OW19873   6.172   6.057   2.728
 6596SOL    HW119874   6.251   6.112   2.735
 6596SOL    HW219875   6.111   6.109   2.676
 6597SOL     OW19876   5.020   4.985   3.489
 6597SOL    HW119877   5.026   4.891   3.468
 6597SOL    HW219878   4.928   5.006   3.474
 6598SOL     OW19879   6.277   5.519   2.515
 6598SOL    HW119880   6.241   5.581   2.578
 6598SOL    HW219881   6.358   5.488   2.554
 6599SOL     OW19882   5.870   5.347   3.975
 6599SOL    HW119883   5.830   5.430   3.952
 6599SOL    HW219884   5.935   5.331   3.906
 6600SOL     OW19885   5.909   5.857   3.437
 6600SOL    HW119886   5.905   5.770   3.478
 6600SOL    HW219887   5.954   5.842   3.354
 6601SOL     OW19888   5.704   6.075   3.517
 6601SOL    HW119889   5.760   6.011   3.472
 6601SOL    HW219890   5.738   6.078   3.606
 6602SOL     OW19891   5.641   5.543   2.723
 6602SOL    HW119892   5.645   5.569   2.815
 6602SOL    HW219893   5.557   5.498   2.714
 6603SOL     OW19894   6.019   6.082   3.343
 6603SOL    HW119895   6.114   6.092   3.338
 6603SOL    HW219896   6.006   6.008   3.401
 6604SOL     OW19897   5.982   5.383   3.364
 6604SOL    HW119898   5.921   5.339   3.423
 6604SOL    HW219899   5.963   5.346   3.278
 6605SOL     OW19900   5.196   6.037   3.731
 6605SOL    HW119901   5.166   5.947   3.747
 6605SOL    HW219902   5.199   6.077   3.818
 6606SOL     OW19903   5.888   5.670   2.771
 6606SOL    HW119904   5.825   5.743   2.774
 6606SOL    HW219905   5.852   5.610   2.706
 6607SOL     OW19906   5.665   5.678   4.233
 6607SOL    HW119907   5.722   5.633   4.296
 6607SOL    HW219908   5.674   5.771   4.255
 6608SOL     OW19909   6.069   6.092   4.540
 6608SOL    HW119910   6.057   6.099   4.445
 6608SOL    HW219911   6.023   6.011   4.564
   6.55342   6.55342   4.63397   0.00000   0.00000   0.00000   0.00000   3.27671   3.27671
